# vtk DataFile Version 2.0
tracks
ASCII
DATASET POLYDATA
POINTS 19486 float
-1.001 1e-07 0.0011 -0.99955 9.74442e-08 0.00110002 -0.9981 9.48834e-08 0.00110004 -0.99665 9.23177e-08
0.00110007 -0.9952 8.97471e-08 0.0011001 -0.99375 8.71715e-08 0.00110014 -0.99 8.04808e-08 0.00110024
-0.98625 7.38043e-08 0.00110033 -0.9825 6.71261e-08 0.00110043 -0.97875 6.0414e-08 0.00110054 -0.975
5.36374e-08 0.00110067 -0.97125 4.67863e-08 0.00110082 -0.9675 3.99429e-08 0.00110097 -0.96375 3.30974e-08
0.00110112 -0.96 2.62153e-08 0.00110128 -0.95625 1.9264e-08 0.00110144 -0.954193 1.54112e-08 0.00110153
-0.952135 1.15586e-08 0.00110163 -0.950078 7.70531e-09 0.00110172 -0.94802 3.8513e-09 0.00110181 -0.945965
1.70862e-17 0.00110191 -0.944272 -3.18036e-09 0.00110198 -0.942579 -6.3752e-09 0.00110206 -0.940886 -9.58451e-09
0.00110214 -0.939193 -1.28083e-08 0.00110222 -0.9375 -1.60466e-08 0.0011023 -0.93375 -2.32504e-08 0.00110247
-0.93 -3.04583e-08 0.00110265 -0.92625 -3.76687e-08 0.00110283 -0.9225 -4.49202e-08 0.00110301 -0.91875
-5.22489e-08 0.00110319 -0.915 -5.96505e-08 0.00110337 -0.91125 -6.70594e-08 0.00110356 -0.9075 -7.44711e-08
0.00110374 -0.90375 -8.19268e-08 0.00110393 -0.9 -8.94652e-08 0.00110412 -0.89625 -9.70792e-08 0.00110431
-0.8925 -1.04783e-07 0.00110451 -0.88875 -1.12568e-07 0.00110471 -0.885 -1.20397e-07 0.00110491 -0.88125
-1.2823e-07 0.00110512 -0.8775 -1.36039e-07 0.00110532 -0.87375 -1.43953e-07 0.00110553 -0.87 -1.51947e-07
0.00110574 -0.86625 -1.59983e-07 0.00110596 -0.8625 -1.68022e-07 0.00110617 -0.85875 -1.76029e-07 0.00110639
-0.855 -1.84152e-07 0.00110661 -0.85125 -1.92355e-07 0.00110683 -0.8475 -2.00601e-07 0.00110706 -0.84375
-2.0885e-07 0.00110729 -0.84 -2.17089e-07 0.00110752 -0.83625 -2.25423e-07 0.00110776 -0.8325 -2.33835e-07
0.001108 -0.82875 -2.42292e-07 0.00110824 -0.825 -2.50752e-07 0.00110849 -0.82125 -2.59158e-07 0.00110873
-0.8175 -2.67704e-07 0.00110898 -0.81375 -2.7633e-07 0.00110924 -0.81 -2.85e-07 0.0011095 -0.80625
-2.93674e-07 0.00110976 -0.8025 -3.02283e-07 0.00111002 -0.79875 -3.11047e-07 0.00111029 -0.795 -3.19893e-07
0.00111056 -0.79125 -3.28785e-07 0.00111084 -0.7875 -3.37681e-07 0.00111112 -0.78375 -3.46561e-07 0.0011114
-0.78 -3.55548e-07 0.00111169 -0.77625 -3.64618e-07 0.00111198 -0.7725 -3.73734e-07 0.00111228 -0.76875
-3.82855e-07 0.00111258 -0.765 -3.91958e-07 0.00111287 -0.76125 -4.01165e-07 0.00111318 -0.7575 -4.10449e-07
0.0011135 -0.75375 -4.19776e-07 0.00111382 -0.75 -4.29109e-07 0.00111414 -0.74625 -4.38328e-07 0.00111446
-0.7425 -4.47748e-07 0.00111479 -0.73875 -4.57245e-07 0.00111512 -0.735 -4.66785e-07 0.00111547 -0.73125
-4.76332e-07 0.00111581 -0.7275 -4.85744e-07 0.00111615 -0.72375 -4.9539e-07 0.00111651 -0.72 -5.05122e-07
0.00111687 -0.71625 -5.14905e-07 0.00111724 -0.7125 -5.24693e-07 0.00111761 -0.70875 -5.34324e-07 0.00111798
-0.705 -5.44224e-07 0.00111835 -0.70125 -5.54218e-07 0.00111875 -0.6975 -5.64267e-07 0.00111914 -0.69375
-5.74323e-07 0.00111954 -0.69 -5.84357e-07 0.00111993 -0.68625 -5.94537e-07 0.00112034 -0.6825 -6.0482e-07
0.00112076 -0.67875 -6.15165e-07 0.00112119 -0.675 -6.25517e-07 0.00112161 -0.67125 -6.35848e-07 0.00112204
-0.6675 -6.46332e-07 0.00112248 -0.66375 -6.56923e-07 0.00112293 -0.66 -6.6758e-07 0.00112339 -0.65625
-6.78244e-07 0.00112384 -0.6525 -6.88659e-07 0.0011243 -0.64875 -6.99468e-07 0.00112478 -0.645 -7.10393e-07
0.00112526 -0.64125 -7.21388e-07 0.00112575 -0.6375 -7.32393e-07 0.00112625 -0.63375 -7.43379e-07 0.00112674
-0.63 -7.54547e-07 0.00112725 -0.62625 -7.65848e-07 0.00112777 -0.6225 -7.77228e-07 0.0011283 -0.61875
-7.88618e-07 0.00112883 -0.615 -7.99992e-07 0.00112936 -0.61125 -8.11561e-07 0.0011299 -0.6075 -8.23271e-07
0.00113046 -0.60375 -8.35068e-07 0.00113103 -0.6 -8.46876e-07 0.0011316 -0.59625 -8.5867e-07 0.00113217
-0.5925 -8.70535e-07 0.00113274 -0.58875 -8.82413e-07 0.00113332 -0.585 -8.94385e-07 0.0011339 -0.58125
-9.06511e-07 0.00113449 -0.5775 -9.18322e-07 0.00113511 -0.57375 -9.30655e-07 0.00113572 -0.57 -9.43002e-07
0.00113633 -0.56625 -9.55457e-07 0.00113696 -0.5625 -9.68085e-07 0.0011376 -0.55875 -9.80341e-07 0.00113826
-0.555 -9.93207e-07 0.00113892 -0.55125 -1.00609e-06 0.00113957 -0.5475 -1.01909e-06 0.00114025 -0.54375
-1.03228e-06 0.00114093 -0.54 -1.04564e-06 0.00114164 -0.53625 -1.0591e-06 0.00114235 -0.5325 -1.07257e-06
0.00114306 -0.52875 -1.08618e-06 0.00114377 -0.525 -1.09998e-06 0.00114451 -0.52125 -1.11325e-06 0.00114527
-0.5175 -1.12735e-06 0.00114603 -0.51375 -1.14147e-06 0.00114678 -0.51 -1.15573e-06 0.00114755 -0.50625
-1.17021e-06 0.00114834 -0.5025 -1.18403e-06 0.00114915 -0.49875 -1.19884e-06 0.00114996 -0.495 -1.21367e-06
0.00115077 -0.49125 -1.22865e-06 0.00115159 -0.4875 -1.24387e-06 0.00115243 -0.48375 -1.25934e-06 0.00115329
-0.48 -1.27493e-06 0.00115414 -0.47625 -1.29054e-06 0.001155 -0.4725 -1.30633e-06 0.00115588 -0.46875
-1.32236e-06 0.00115677 -0.465 -1.33868e-06 0.00115767 -0.46125 -1.35513e-06 0.00115858 -0.4575 -1.37161e-06
0.00115949 -0.45375 -1.38826e-06 0.00116041 -0.45 -1.40517e-06 0.00116135 -0.44625 -1.42238e-06 0.0011623
-0.4425 -1.43973e-06 0.00116325 -0.43875 -1.45712e-06 0.0011642 -0.435 -1.47469e-06 0.00116517 -0.43125
-1.49253e-06 0.00116614 -0.4275 -1.50896e-06 0.00116713 -0.42375 -1.52729e-06 0.00116811 -0.42 -1.54566e-06
0.0011691 -0.41625 -1.56423e-06 0.0011701 -0.4125 -1.58309e-06 0.0011711 -0.40875 -1.60025e-06 0.0011721
-0.405 -1.61967e-06 0.00117311 -0.40125 -1.63914e-06 0.00117412 -0.3975 -1.65883e-06 0.00117513 -0.39375
-1.67883e-06 0.00117613 -0.39 -1.69926e-06 0.00117714 -0.38625 -1.7199e-06 0.00117814 -0.3825 -1.74059e-06
0.00117915 -0.37875 -1.76151e-06 0.00118015 -0.375 -1.78276e-06 0.00118113 -0.37125 -1.8045e-06 0.00118209
-0.3675 -1.82648e-06 0.00118305 -0.36375 -1.8485e-06 0.00118402 -0.36 -1.87078e-06 0.00118496 -0.35625
-1.89339e-06 0.00118586 -0.3525 -1.91294e-06 0.00118673 -0.34875 -1.93635e-06 0.0011876 -0.345 -1.95983e-06
0.00118846 -0.34125 -1.98356e-06 0.00118929 -0.3375 -2.00764e-06 0.00119004 -0.33375 -2.03234e-06 0.00119074
-0.33 -2.05733e-06 0.00119143 -0.32625 -2.0824e-06 0.00119212 -0.3225 -2.10773e-06 0.00119274 -0.31875
-2.13342e-06 0.00119326 -0.315 -2.15984e-06 0.00119367 -0.31125 -2.18657e-06 0.00119408 -0.3075 -2.21339e-06
0.00119449 -0.30375 -2.24046e-06 0.00119479 -0.3 -2.26788e-06 0.00119493 -0.29625 -2.28973e-06 0.00119491
-0.2925 -2.31853e-06 0.00119466 -0.28875 -2.34765e-06 0.00119418 -0.285 -2.37703e-06 0.00119352 -0.28125
-2.40648e-06 0.00119286 -0.2775 -2.42889e-06 0.00119221 -0.27375 -2.45958e-06 0.00119121 -0.27 -2.49057e-06
0.00118989 -0.26625 -2.52179e-06 0.00118832 -0.2625 -2.55309e-06 0.00118675 -0.25875 -2.5759e-06 0.00118519
-0.255 -2.60854e-06 0.00118315 -0.25125 -2.64142e-06 0.00118062 -0.2475 -2.67448e-06 0.00117776 -0.24375
-2.70759e-06 0.00117491 -0.24 -2.7417e-06 0.00117206 -0.23625 -2.77626e-06 0.00116858 -0.2325 -2.81094e-06
0.00116447 -0.22875 -2.84571e-06 0.00115995 -0.225 -2.88052e-06 0.00115544 -0.22125 -2.90307e-06 0.00115096
-0.2175 -2.93905e-06 0.00114561 -0.21375 -2.9749e-06 0.00113941 -0.21 -3.01067e-06 0.0011327 -0.20625
-3.04645e-06 0.00112604 -0.2025 -3.06782e-06 0.00111942 -0.19875 -3.10536e-06 0.00111159 -0.195 -3.1425e-06
0.00110256 -0.19125 -3.17942e-06 0.00109295 -0.1875 -3.21632e-06 0.00108344 -0.18375 -3.25423e-06 0.00107402
-0.18 -3.29153e-06 0.00106307 -0.17625 -3.32795e-06 0.00105062 -0.1725 -3.36397e-06 0.00103766 -0.16875
-3.39994e-06 0.00102487 -0.165 -3.43741e-06 0.00101227 -0.16125 -3.47363e-06 0.000997878 -0.1575 -3.50848e-06
0.000981747 -0.15375 -3.54291e-06 0.00096538 -0.15 -3.57728e-06 0.000949316 -0.14625 -3.61332e-06 0.000933545
-0.1425 -3.64648e-06 0.000915777 -0.13875 -3.67684e-06 0.000896075 -0.135 -3.70696e-06 0.000876638 -0.13125
-3.73708e-06 0.000857659 -0.1275 -3.74296e-06 0.000839121 -0.12375 -3.77191e-06 0.00081852 -0.12 -3.79877e-06
0.000796265 -0.11625 -3.82573e-06 0.000774651 -0.1125 -3.85278e-06 0.00075366 -0.10875 -3.85413e-06 0.000733264
-0.105 -3.87736e-06 0.000710846 -0.10125 -3.89768e-06 0.000687469 -0.0975 -3.91832e-06 0.000664885 -0.0937499
-3.93926e-06 0.000643067 -0.0899999 -3.96173e-06 0.000621977 -0.0862499 -3.98211e-06 0.000599358 -0.0824999 -4.00219e-06
0.000576678 -0.0787499 -4.02265e-06 0.00055486 -0.0749999 -4.0435e-06 0.000533872 -0.0712499 -4.06553e-06 0.000513671
-0.0674999 -4.09002e-06 0.000493393 -0.0637499 -4.11527e-06 0.000473763 -0.0599999 -4.14076e-06 0.000454901 -0.0562499
-4.16649e-06 0.000436779 -0.0524999 -4.16516e-06 0.000419356 -0.0487498 -4.18838e-06 0.000404281 -0.0449998 -4.21186e-06
0.00038973 -0.0412498 -4.2356e-06 0.000375688 -0.0374998 -4.2596e-06 0.000362136 -0.0337498 -4.28392e-06 0.000349051
-0.0299998 -4.3048e-06 0.000340426 -0.0262498 -4.32593e-06 0.000332005 -0.0224998 -4.3473e-06 0.000323785 -0.0187499
-4.36891e-06 0.00031576 -0.0149999 -4.39022e-06 0.000307926 -0.0112499 -4.4141e-06 0.000304501 -0.0074999 -4.43811e-06
0.000301113 -0.00374991 -4.46225e-06 0.000297762 6.11915e-08 -4.48653e-06 0.000294446 0.00375005 -4.48699e-06 0.000291167
0.00750005 -4.50798e-06 0.00028793 0.01125 -4.52908e-06 0.000284728 0.015 -4.55027e-06 0.00028156 0.01875
-4.57156e-06 0.000278426 0.0225 -4.57781e-06 0.00027739 0.02625 -4.60256e-06 0.000276362 0.03 -4.6274e-06
0.000275336 0.03375 -4.65232e-06 0.000274315 0.0375 -4.67732e-06 0.000273297 0.04125 -4.68512e-06 0.000272809
0.045 -4.7091e-06 0.000272325 0.04875 -4.73314e-06 0.000271841 0.0525 -4.75725e-06 0.000271358 0.05625
-4.78144e-06 0.000270876 0.06 -4.8056e-06 0.000270678 0.06375 -4.82779e-06 0.000270481 0.0675 -4.85005e-06
0.000270285 0.07125 -4.87237e-06 0.000270088 0.075 -4.89474e-06 0.000269892 0.07875 -4.90032e-06 0.000269844
0.0825 -4.91872e-06 0.000269798 0.08625 -4.93716e-06 0.000269752 0.09 -4.95566e-06 0.000269705 0.09375
-4.9742e-06 0.000269659 0.0975 -4.97413e-06 0.000269663 0.10125 -4.98632e-06 0.000269668 0.105 -4.99854e-06
0.000269673 0.10875 -5.0108e-06 0.000269679 0.1125 -5.02308e-06 0.000269684 0.11625 -5.03151e-06 0.000269701
[...]
POINT_DATA 19486
FIELD attributes 3
age 1 19486 float
0 7.30132e-05 0.00014603 0.000219051 0.000292075 0.000365103 0.000553977 0.000742852 0.000931727 0.00112062 0.00130954
0.0014985 0.00168746 0.00187641 0.00206539 0.00225439 0.00235811 0.00246183 0.00256555 0.00266927 0.00277289
0.00285824 0.0029436 0.00302896 0.00311433 0.00319971 0.00338884 0.00357798 0.00376712 0.00395627 0.00414547
0.00433471 0.00452395 0.00471318 0.00490244 0.00509174 0.00528109 0.00547048 0.00565991 0.00584937 0.00603883
0.00622828 0.00641779 0.00660735 0.00679693 0.00698651 0.00717609 0.00736572 0.00755541 0.00774512 0.00793484
0.00812455 0.00831432 0.00850415 0.008694 0.00888386 0.00907371 0.00926363 0.00945361 0.00964361 0.00983362
0.0100236 0.0102137 0.0104038 0.010594 0.0107842 0.0109744 0.0111646 0.0113549 0.0115453 0.0117356
0.011926 0.0121164 0.0123069 0.0124975 0.012688 0.0128785 0.0130692 0.0132599 0.0134506 0.0136414
0.0138321 0.014023 0.0142139 0.0144049 0.0145959 0.0147869 0.0149779 0.0151691 0.0153603 0.0155516
0.0157428 0.0159341 0.0161255 0.016317 0.0165085 0.0167 0.0168916 0.0170834 0.0172751 0.0174669
0.0176587 0.0178506 0.0180426 0.0182347 0.0184268 0.0186189 0.0188112 0.0190036 0.019196 0.0193885
0.0195809 0.0197735 0.0199662 0.0201591 0.0203519 0.0205447 0.0207376 0.0209304 0.0211233 0.0213164
0.0215097 0.0217029 0.0218962 0.0220895 0.0222831 0.0224768 0.0226705 0.0228642 0.023058 0.0232521
0.0234463 0.0236405 0.0238347 0.024029 0.0242236 0.0244184 0.0246131 0.0248079 0.0250028 0.025198
0.0253933 0.0255887 0.0257841 0.0259796 0.0261754 0.0263715 0.0265675 0.0267636 0.0269598 0.0271564
0.0273531 0.0275499 0.0277468 0.0279438 0.0281411 0.0283387 0.0285363 0.0287339 0.0289318 0.02913
0.0293285 0.0295271 0.0297256 0.0299244 0.0301236 0.0303231 0.0305226 0.0307222 0.030922 0.0311222
0.0313229 0.0315235 0.0317242 0.0319252 0.0321266 0.0323284 0.0325303 0.0327322 0.0329344 0.0331371
0.0333403 0.0335435 0.0337467 0.0339503 0.0341544 0.034359 0.0345636 0.0347683 0.0349733 0.0351789
0.0353851 0.0355912 0.0357974 0.036004 0.0362112 0.0364189 0.0366273 0.0368363 0.0370457 0.037255
0.0374644 0.0376743 0.0378849 0.0380959 0.0383068 0.0385177 0.0387291 0.0389411 0.0391534 0.0393657
0.0395779 0.0397906 0.0400037 0.0402171 0.0404303 0.0406435 0.0408569 0.0410707 0.0412845 0.0414982
0.0417116 0.0419251 0.0421387 0.042352 0.0425652 0.042778 0.0429905 0.0432025 0.0434142 0.0436255
0.0438364 0.0440465 0.0442557 0.0444643 0.0446725 0.0448803 0.0450867 0.0452915 0.0454958 0.0456998
0.0459033 0.0461047 0.0463041 0.0465032 0.046702 0.0469004 0.0470961 0.0472899 0.0474835 0.0476769
0.04787 0.0480598 0.0482483 0.0484367 0.0486251 0.0488135 0.0489982 0.0491824 0.0493667 0.0495512
0.0497358 0.049917 0.0500984 0.05028 0.0504619 0.0506439 0.0508238 0.0510039 0.0511842 0.0513647
0.0515453 0.0517252 0.0519052 0.0520853 0.0522655 0.0524457 0.052626 0.0528064 0.0529868 0.0531674
0.053348 0.0535287 0.0537094 0.0538901 0.0540708 0.0542519 0.0544329 0.054614 0.0547951 0.0549762
0.0551576 0.055339 0.0555204 0.0557018 0.0558833 0.056065 0.0562467 0.0564285 0.0566102 0.0567919
0.056974 0.057156 0.057338 0.0575201 0.0577021 0.0578844 0.0580668 0.0582491 0.0584314 0.0586137
0.0587963 0.0589789 0.0591616 0.0593442 0.0595268 0.0597097 0.0598926 0.0600755 0.0602584 0.0604414
0.0606246 0.0608078 0.060991 0.0611743 0.0613575 0.061541 0.0617245 0.0619081 0.0620916 0.0622751
0.062459 0.0626428 0.0628266 0.0630104 0.0631942 0.0633784 0.0635625 0.0637466 0.0639307 0.0641148
0.0642991 0.0644835 0.0646678 0.0648522 0.0650365 0.0652211 0.0654057 0.0655903 0.0657749 0.0659595
0.0661443 0.0663291 0.0665139 0.0666987 0.0668835 0.0670685 0.0672536 0.0674388 0.067624 0.0678091
0.0679943 0.0681796 0.0683649 0.0685502 0.0687355 0.0689208 0.0691063 0.0692917 0.0694772 0.0696626
0.0698481 0.0700336 0.0702192 0.0704048 0.0705903 0.0707759 0.0709616 0.0711472 0.0713329 0.0715186
0.0717042 0.07189 0.0720757 0.0722615 0.0724472 0.072633 0.0728188 0.0730046 0.0731904 0.0733763
0.0735621 0.0737479 0.0739338 0.0741197 0.0743055 0.0744914 0.0746773 0.0748632 0.0750491 0.0752349
0.0754208 0.0756067 0.0757926 0.0759785 0.0761644 0.0763503 0.0765361 0.076722 0.0769079 0.0770937
0.0772796 0.0774654 0.0776512 0.0778371 0.0780229 0.0782087 0.0783945 0.0785803 0.0787661 0.0789519
0.0791377 0.0793234 0.0795092 0.0796949 0.0798807 0.0800664 0.0802522 0.0804379 0.0806236 0.0808094
0.0809517 0.0810941 0.0812365 0.0813788 0.0814551 0.0815117 0.0815683 0.0816249 0.0816815 0.0817381
0.0819239 0.0821096 0.0822954 0.0824811 0.0826669 0.0828527 0.0830384 0.0832242 0.08341 0.0835958
0.0837817 0.0839675 0.0841533 0.0843392 0.084525 0.084711 0.0848969 0.0850828 0.0852687 0.0854546
0.0856406 0.0858266 0.0860125 0.0861985 0.0863845 0.0865706 0.0867566 0.0869427 0.0871287 0.0873148
0.0875009 0.087687 0.0878731 0.0880592 0.0882453 0.0884315 0.0886177 0.0888038 0.08899 0.0891762
0.0893624 0.0895486 0.0897348 0.0899211 0.0901073 0.0902935 0.0904798 0.0906661 0.0908523 0.0910386
0.0912249 0.0914112 0.0915975 0.0917839 0.0919702 0.0921565 0.0923429 0.0925292 0.0927156 0.0929019
0.0930883 0.0932747 0.0934611 0.0936475 0.0938339 0.0940203 0.0942067 0.0943932 0.0945796 0.094766
0.0949525 0.095139 0.0953254 0.0955119 0.0956984 0.0958849 0.0960714 0.096258 0.0964445 0.096631
0.0968176 0.0970042 0.0971908 0.0973775 0.0975641 0.0977508 0.0979375 0.0981242 0.0983109 0.0984976
0.0986843 0.0988711 0.0990579 0.0992447 0.0994315 0.0996183 0.0998052 0.099992 0.100179 0.100366
0.100553 0.100739 0.100926 0.101113 0.1013 0.101487 0.101674 0.101861 0.102048 0.102235
0.102421 0.102608 0.102796 0.102983 0.10317 0.103357 0.103544 0.103731 0.103918 0.104106
0.104293 0.10448 0.104668 0.104855 0.105043 0.10523 0.105418 0.105606 0.105794 0.105982
0.106169 0.106358 0.106546 0.106734 0.106922 0.10711 0.107299 0.107487 0.107676 0.107864
0.108053 0.108242 0.10843 0.108619 0.108808 0.108997 0.109186 0.109375 0.109564 0.109754
0.109943 0.110132 0.110322 0.110511 0.110701 0.11089 0.11108 0.111269 0.111459 0.111649
0.111838 0.112028 0.112218 0.112407 0.112597 0.112787 0.112976 0.113166 0.113356 0.113546
0.113736 0.113926 0.114116 0.114306 0.114496 0.114686 0.114876 0.115066 0.115256 0.115446
0.115636 0.115826 0.116016 0.116206 0.116396 0.116586 0.116776 0.116966 0.117157 0.117347
0.117537 0.117727 0.117917 0.118107 0.118297 0.118487 0.118677 0.118867 0.119058 0.119248
0.119438 0.119628 0.119818 0.120008 0.120198 0.120388 0.120578 0.120768 0.120959 0.121149
0.121339 0.121529 0.121719 0.121909 0.122099 0.122289 0.122479 0.122669 0.122859 0.123049
0.123239 0.123429 0.123619 0.123809 0.123999 0.124189 0.124379 0.124569 0.124759 0.124949
0.125139 0.125329 0.125519 0.125709 0.125899 0.126089 0.126279 0.126469 0.126659 0.12685
0.127039 0.127229 0.12742 0.12761 0.1278 0.12799 0.12818 0.12837 0.12856 0.12875
0.12894 0.12913 0.12932 0.12951 0.1297 0.12989 0.13008 0.13027 0.13046 0.13065
0.13084 0.13103 0.13122 0.13141 0.1316 0.13179 0.13198 0.13217 0.132361 0.132551
0.13274 0.13293 0.133121 0.133311 0.133501 0.13369 0.13388 0.134071 0.134261 0.134451
0.13464 0.13483 0.13502 0.13521 0.135401 0.13559 0.13578 0.13597 0.13616 0.13635
0.13654 0.13673 0.13692 0.13711 0.1373 0.137489 0.137679 0.137869 0.138059 0.138249
0.138439 0.138628 0.138818 0.139008 0.139198 0.139387 0.139577 0.139767 0.139957 0.140147
0.140336 0.140526 0.140716 0.140905 0.141095 0.141284 0.141474 0.141664 0.141853 0.142043
0.142232 0.142422 0.142611 0.142801 0.142991 0.14318 0.143369 0.143559 0.143748 0.143938
0.144127 0.144316 0.144506 0.144695 0.144885 0.145074 0.145263 0.145452 0.145642 0.145831
0.14602 0.146209 0.146399 0.146588 0.146778 0.146966 0.147156 0.147345 0.147534 0.147724
0.147912 0.148102 0.148291 0.14848 0.14867 0.148858 0.149047 0.149236 0.149426 0.149615
0.149803 0.149992 0.150181 0.15037 0.150559 0.150747 0.150936 0.151125 0.151314 0.151503
0.15188 0.152256 0.152633 0.15301 0.153386 0.154137 0.154888 0.155639 0.156391 0.157142
0.158642 0.160143 0.161644 0.163144 0.164645 0.166145 0.167645 0.169146 0.170646 0.172146
0.175147 0.178147 0.181147 0.184147 0.187148 0.193148 0.199148 0.205148 0.211148 0.217148
0.223148 0.229148 0.235148 0.241148 0.247148 0.253148 0.259149 0.265149 0.271149 0.277149
0.283149 0.289149 0.295149 0.301149 0.307149 0.313149 0.319149 0.325149 0.331149 0.337149
0.343149 0.349149 0.355149 0.361149 0.367149 0.373149 0.379149 0.385149 0.391149 0.397149
0.403149 0.403224 0 7.36835e-05 0.000147371 0.000221062 0.000294758 0.000368457 0.000540849 0.000713269
0.000885716 0.00105819 0.00122448 0.00124396 0.00126344 0.00128292 0.0013024 0.00132188 0.00151266 0.00170348
0.00189433 0.00208522 0.00227615 0.00246711 0.0026581 0.00284914 0.00304021 0.00323132 0.00342247 0.00361366
0.00380489 0.00399615 0.00418746 0.00437881 0.00457021 0.00476165 0.00495313 0.00514465 0.00533622 0.00552783
0.00571949 0.0059112 0.00610295 0.00629475 0.0064866 0.0066785 0.00687045 0.00706244 0.00725449 0.0074466
0.00763875 0.00783096 0.00802323 0.00821554 0.00840792 0.00860035 0.00879284 0.00898539 0.00917799 0.00937066
0.00956339 0.00975618 0.00994904 0.010142 0.0103349 0.010528 0.0107211 0.0109143 0.0111075 0.0113009
0.0114943 0.0116877 0.0118813 0.0120749 0.0122686 0.0124623 0.0126562 0.0128501 0.0130441 0.0132382
0.0134324 0.0136266 0.013821 0.0140154 0.0142099 0.0144045 0.0145992 0.014794 0.0149889 0.0151839
0.015379 0.0155742 0.0157695 0.0159649 0.0161604 0.016356 0.0165517 0.0167475 0.0169434 0.0171395
0.0173356 0.0175319 0.0177283 0.0179248 0.0181215 0.0183183 0.0185152 0.0187122 0.0189094 0.0191067
0.0193041 0.0195017 0.0196994 0.0198973 0.0200953 0.0202935 0.0204918 0.0206903 0.020889 0.0210878
0.0212867 0.0214859 0.0216852 0.0218847 0.0220844 0.0222842 0.0224843 0.0226845 0.0228849 0.0230856
0.0232864 0.0234874 0.0236887 0.0238901 0.0240918 0.0242937 0.0244958 0.0246982 0.0249007 0.0251036
0.0253066 0.02551 0.0257136 0.0259174 0.0261215 0.0263259 0.0265306 0.0267355 0.0269407 0.0271463
0.0273521 0.0275583 0.0277647 0.0279715 0.0281786 0.0283861 0.0285939 0.028802 0.0290105 0.0292194
0.0294287 0.0296383 0.0298483 0.0300588 0.0302696 0.0304809 0.0306926 0.0309048 0.0311173 0.0313304
0.0315439 0.031758 0.0319725 0.0321875 0.032403 0.0326191 0.0328357 0.0330529 0.0332706 0.0334889
0.0337078 0.0339274 0.0341475 0.0343683 0.0345898 0.0348119 0.0350348 0.0352583 0.0354826 0.0357076
0.0359333 0.0361599 0.0363872 0.0366153 0.0368443 0.0370742 0.037305 0.0375366 0.0377691 0.0380026
0.038237 0.0384725 0.0387089 0.0389463 0.0391849 0.0394245 0.0396653 0.0399071 0.04015 0.0403941
0.0406393 0.0408858 0.0411335 0.0413825 0.0416327 0.0418843 0.0421371 0.0423914 0.0426467 0.0429033
0.043161 0.0434201 0.0436808 0.0439427 0.0442058 0.04447 0.0447353 0.0450026 0.0452703 0.0455386
0.0458073 0.0460766 0.0463484 0.0464745 0.0466006 0.0467266 0.0468525 0.0469321 0.0470868 0.0472414
0.0473958 0.0475501 0.0477054 0.0479761 0.048245 0.0485121 0.0487773 0.0490456 0.049191 0.0493353
0.0494784 0.0496204 0.04973 0.049851 0.0499712 0.0500905 0.0502092 0.0503279 0.0505752 0.0508174
0.0510546 0.0512871 0.0515161 0.0515312 0.0515463 0.0515613 0.0515763 0.0515914 0.0517983 0.0520006
0.0521985 0.0523922 0.0525798 0.0526908 0.0528001 0.0529078 0.0530141 0.0531475 0.0532222 0.0532962
0.0533695 0.0534422 0.0535138 0.0536881 0.0538588 0.054026 0.0541899 0.0543475 0.0544855 0.0546221
0.0547571 0.0548907 0.0551133 0.0551274 0.0551416 0.0551557 0.0551698 0.0551858 0.0553178 0.0554492
0.0555801 0.0557104 0.0558394 0.0559823 0.0561253 0.0562684 0.0564117 0.0565548 0.0566981 0.0568417
0.0569855 0.0571298 0.0572744 0.0574194 0.0575647 0.0577104 0.0578565 0.0580029 0.0581497 0.0582967
0.0584441 0.0585918 0.0587398 0.0588882 0.0590369 0.0591859 0.0593351 0.0594847 0.0596346 0.0597848
0.0599353 0.0600861 0.0602372 0.0603886 0.0605404 0.0606924 0.0608447 0.0609974 0.0611504 0.0613037
0.0614573 0.0616112 0.0617655 0.0619201 0.0620751 0.0622304 0.0623861 0.0625421 0.0626984 0.0628551
0.0630122 0.0631696 0.0633273 0.0634854 0.0636439 0.0638027 0.0639618 0.0641214 0.0642812 0.0644414
0.0646019 0.0647628 0.064924 0.0650855 0.0652474 0.0654095 0.0655721 0.0657349 0.065898 0.0660614
0.0662252 0.0663892 0.0665535 0.0667181 0.066883 0.0670482 0.0672137 0.0673794 0.0675454 0.0677116
0.0678781 0.0680448 0.0682118 0.0683791 0.0685465 0.0687143 0.0688822 0.0690504 0.0692187 0.0693873
0.0695561 0.0697251 0.0698943 0.0700637 0.0702334 0.0704032 0.0705732 0.0707433 0.0709137 0.0710842
0.0712549 0.0714257 0.0715967 0.0717679 0.0719393 0.0721108 0.0722824 0.0724542 0.0726262 0.0727982
0.0729704 0.0731427 0.0733152 0.0734877 0.0736604 0.0738332 0.0740061 0.0741791 0.0743522 0.0745254
0.0746986 0.0748719 0.0750453 0.0752188 0.0753923 0.0755659 0.0757395 0.0759132 0.0760869 0.0762606
0.0764343 0.076608 0.0767818 0.0769555 0.0771293 0.077303 0.0774768 0.0776505 0.0778242 0.0779978
0.0781714 0.0783449 0.0785184 0.0786919 0.0788654 0.0790388 0.0792121 0.0793854 0.0795586 0.0797318
0.0799049 0.080078 0.080251 0.080424 0.080597 0.08077 0.0809429 0.0811158 0.0812887 0.0814616
0.0816345 0.0818075 0.0819804 0.081988 0.0819956 0.0820032 0.0820108 0.0820183 0.0821837 0.0823492
0.0825148 0.0826804 0.0828461 0.0830194 0.0831927 0.0833662 0.0835397 0.0837134 0.0838871 0.0840609
0.0842349 0.084409 0.0845832 0.0847574 0.0849318 0.0851063 0.0852809 0.0854556 0.0856305 0.0858055
0.0859806 0.0861558 0.0863311 0.0865066 0.0866821 0.0868577 0.0870335 0.0872093 0.0873853 0.0875614
0.0877377 0.087914 0.0880904 0.0882669 0.0884435 0.0886202 0.088797 0.0889739 0.0891509 0.089328
0.0895052 0.0896825 0.0898598 0.0900373 0.0902148 0.0903924 0.0905701 0.0907478 0.0909257 0.0911037
0.0912817 0.0914598 0.091638 0.0918163 0.0919947 0.0921731 0.0923516 0.0925301 0.0927088 0.0928876
0.0930665 0.0932454 0.0934244 0.0936035 0.0937827 0.093962 0.0941413 0.0943207 0.0945003 0.0946799
0.0948596 0.0950395 0.0952194 0.0953994 0.0955795 0.0957597 0.09594 0.0961205 0.096301 0.0964817
0.0966625 0.0968435 0.0970245 0.0972058 0.0973872 0.0975688 0.0977505 0.0979324 0.098115 0.0982977
0.0984807 0.0986639 0.0988472 0.0990298 0.0992125 0.0993952 0.0995781 0.099761 0.0999443 0.100128
0.100311 0.100494 0.100678 0.100861 0.101045 0.101229 0.101413 0.101597 0.101781 0.101965
0.10215 0.102335 0.102521 0.102706 0.102892 0.103079 0.103266 0.103453 0.103641 0.10383
0.104019 0.10421 0.1044 0.104592 0.104784 0.104977 0.105171 0.105366 0.105562 0.105759
0.105958 0.106157 0.106358 0.10656 0.106763 0.106967 0.107173 0.10738 0.107589 0.107799
0.108011 0.108224 0.108438 0.108655 0.108872 0.109091 0.109312 0.109534 0.109759 0.109984
0.110212 0.11044 0.110671 0.110903 0.111137 0.111372 0.111608 0.111847 0.112086 0.112327
0.11257 0.112813 0.113059 0.113305 0.113553 0.113802 0.114052 0.114303 0.114556 0.114809
0.115063 0.115318 0.115574 0.115832 0.116089 0.116348 0.116608 0.116868 0.117129 0.11739
0.117652 0.117914 0.118177 0.118441 0.118705 0.118969 0.119234 0.119499 0.119764 0.12003
0.120295 0.120561 0.120827 0.121094 0.12136 0.121627 0.121893 0.12216 0.122342 0.122523
0.122705 0.122886 0.123061 0.123147 0.123234 0.123321 0.123408 0.123495 0.123762 0.124029
0.124296 0.124563 0.12483 0.125097 0.125364 0.125631 0.125897 0.126164 0.126431 0.126697
0.126964 0.12723 0.127496 0.127762 0.128029 0.128295 0.128561 0.128827 0.129092 0.129358
0.129624 0.129889 0.130155 0.13042 0.130685 0.130951 0.131216 0.131481 0.131746 0.132011
0.132276 0.132541 0.132805 0.13307 0.133334 0.133599 0.133864 0.134128 0.134392 0.134656
0.13492 0.135184 0.135448 0.135711 0.135975 0.136239 0.136503 0.136767 0.13703 0.137293
0.137556 0.137819 0.138082 0.138344 0.138607 0.13887 0.139133 0.139395 0.139656 0.139918
0.14018 0.140442 0.140703 0.140964 0.141225 0.141486 0.141747 0.142008 0.142267 0.142527
0.142787 0.143047 0.143307 0.143566 0.143825 0.144084 0.144342 0.144601 0.144728 0.144855
0.144982 0.145109 0.145235 0.145365 0.145496 0.145627 0.145757 0.145888 0.146144 0.146401
0.146657 0.146913 0.147168 0.147423 0.147678 0.147933 0.148188 0.148442 0.148694 0.148948
0.149202 0.149455 0.149707 0.149958 0.15021 0.150462 0.150714 0.150965 0.151214 0.151465
0.151715 0.151965 0.152215 0.152463 0.152712 0.152961 0.15321 0.153459 0.153705 0.153953
0.154201 0.154449 0.154696 0.154942 0.155188 0.155436 0.155683 0.155929 0.156173 0.156419
0.156665 0.156911 0.157156 0.1574 0.157645 0.15789 0.158135 0.158379 0.158621 0.158865
0.159109 0.159353 0.159596 0.159837 0.16008 0.160323 0.160565 0.160807 0.161047 0.161288
0.16153 0.16177 0.162011 0.16225 0.16249 0.16273 0.162969 0.163208 0.163446 0.163684
0.163922 0.16416 0.164398 0.164634 0.164871 0.165108 0.165343 0.165579 0.165663 0.165746
0.16583 0.165914 0.165996 0.166381 0.166764 0.167145 0.167516 0.167874 0.168696 0.16952
0.170338 0.171152 0.171955 0.173495 0.175033 0.176571 0.178109 0.179644 0.181157 0.182676
0.184195 0.185712 0.187227 0.19024 0.193256 0.19627 0.199283 0.202294 0.208301 0.214309
0.220317 0.226325 0.232332 0.238333 0.244338 0.250342 0.256346 0.262351 0.268352 0.274355
0.280359 0.286362 0.292366 0.298366 0.30437 0.310373 0.316375 0.322378 0.328379 0.334381
0.340384 0.346386 0.352389 0.358389 0.364391 0.370394 0.376396 0.382398 0.388398 0.3944
0.400402 0.406403 0.412405 0.418406 0.423104 0 7.36595e-05 0.000147324 0.000220992 0.000294666
0.000368344 0.0005444 0.000720484 0.000896595 0.00107274 0.00124248 0.00125828 0.00127408 0.00128988 0.00130568
0.00132148 0.0015122 0.00170296 0.00189375 0.00208458 0.00227544 0.00246633 0.00265727 0.00284824 0.00303924
0.00323029 0.00342137 0.00361248 0.00380364 0.00399484 0.00418608 0.00437735 0.00456867 0.00476004 0.00495144
0.00514289 0.00533437 0.00552591 0.00571748 0.00590911 0.00610078 0.00629249 0.00648425 0.00667607 0.00686793
0.00705983 0.00725179 0.0074438 0.00763586 0.00782797 0.00802014 0.00821236 0.00840463 0.00859696 0.00878934
0.00898179 0.00917428 0.00936684 0.00955946 0.00975214 0.00994488 0.0101377 0.0103305 0.0105235 0.0107165
0.0109095 0.0111026 0.0112958 0.0114891 0.0116824 0.0118758 0.0120693 0.0122629 0.0124565 0.0126502
0.012844 0.0130378 0.0132318 0.0134258 0.0136199 0.0138141 0.0140083 0.0142027 0.0143971 0.0145917
0.0147863 0.014981 0.0151758 0.0153707 0.0155657 0.0157608 0.015956 0.0161513 0.0163467 0.0165422
0.0167378 0.0169335 0.0171293 0.0173253 0.0175213 0.0177175 0.0179138 0.0181102 0.0183068 0.0185034
0.0187002 0.0188971 0.0190942 0.0192914 0.0194887 0.0196861 0.0198837 0.0200815 0.0202794 0.0204774
0.0206756 0.020874 0.0210725 0.0212711 0.02147 0.021669 0.0218681 0.0220675 0.022267 0.0224667
0.0226666 0.0228667 0.023067 0.0232674 0.0234681 0.023669 0.0238701 0.0240714 0.0242729 0.0244746
0.0246766 0.0248788 0.0250812 0.0252839 0.0254868 0.02569 0.0258934 0.0260971 0.026301 0.0265053
0.0267098 0.0269146 0.0271197 0.0273251 0.0275308 0.0277368 0.0279431 0.0281498 0.0283568 0.0285642
0.0287719 0.02898 0.0291884 0.0293972 0.0296065 0.0298161 0.0298589 0.0299016 0.0299444 0.0299873
0.0300291 0.0301969 0.030365 0.0305333 0.030702 0.0308709 0.0310831 0.0312959 0.0315091 0.0317228
0.0319371 0.0321519 0.0323672 0.0325831 0.0327996 0.0330167 0.0332344 0.0334527 0.0336717 0.0338914
0.0341117 0.0343327 0.0345546 0.0347772 0.0350005 0.0352247 0.0354497 0.0356756 0.0359024 0.0361301
0.0363587 0.0365883 0.036819 0.0370509 0.0372838 0.0375178 0.0377529 0.0379894 0.0382271 0.0384662
0.0387066 0.0389484 0.0391918 0.0394369 0.0396837 0.039932 0.040182 0.0404339 0.0406878 0.0409437
0.0412017 0.0414617 0.0417242 0.0419893 0.0422571 0.0425274 0.0428009 0.0430775 0.0433572 0.0436403
0.043927 0.0442166 0.0445103 0.0448082 0.0451102 0.0454179 0.0457276 0.046042 0.0463609 0.0466845
0.0470182 0.0471739 0.0473308 0.0474888 0.0476478 0.047725 0.0479319 0.0481402 0.0483498 0.0485605
0.0487798 0.0490793 0.0493809 0.0496841 0.0499864 0.0500771 0.0501971 0.0503168 0.0504361 0.0505551
0.0506787 0.0508749 0.051069 0.0512609 0.0514506 0.0515741 0.0517787 0.0519798 0.0521774 0.0523714
0.052577 0.0526032 0.0526293 0.0526554 0.0526813 0.0527064 0.0529071 0.0531022 0.0532922 0.0534773