# vtk DataFile Version 2.0
tracks
ASCII
DATASET POLYDATA
POINTS 19447 float
-1.001 1e-07 0.0011 -0.99955 9.73643e-08 0.00110002 -0.9981 9.47182e-08 0.00110004 -0.99665 9.20619e-08
0.00110007 -0.9952 8.93953e-08 0.0011001 -0.99375 8.67183e-08 0.00110014 -0.99 7.97516e-08 0.00110024
-0.98625 7.27991e-08 0.00110034 -0.9825 6.58446e-08 0.00110043 -0.97875 5.88369e-08 0.00110054 -0.975
5.17268e-08 0.00110067 -0.97125 4.45046e-08 0.00110083 -0.9675 3.72896e-08 0.00110098 -0.96375 3.00723e-08
0.00110113 -0.96 2.27987e-08 0.00110128 -0.95625 1.54174e-08 0.00110145 -0.954706 1.2334e-08 0.00110152
-0.953163 9.2506e-09 0.00110159 -0.951619 6.16682e-09 0.00110166 -0.950075 3.08259e-09 0.00110173 -0.948533
1.7007e-17 0.0011018 -0.946326 -4.40972e-09 0.0011019 -0.94412 -8.8304e-09 0.001102 -0.941913 -1.32889e-08
0.0011021 -0.939707 -1.77851e-08 0.0011022 -0.9375 -2.23192e-08 0.00110231 -0.93375 -3.00873e-08 0.00110249
-0.93 -3.78602e-08 0.00110266 -0.92625 -4.56359e-08 0.00110284 -0.9225 -5.34705e-08 0.00110302 -0.91875
-6.14168e-08 0.0011032 -0.915 -6.94698e-08 0.00110339 -0.91125 -7.75311e-08 0.00110357 -0.9075 -8.55954e-08
0.00110376 -0.90375 -9.37234e-08 0.00110395 -0.9 -1.01972e-07 0.00110414 -0.89625 -1.10333e-07 0.00110433
-0.8925 -1.1883e-07 0.00110453 -0.88875 -1.27453e-07 0.00110473 -0.885 -1.36145e-07 0.00110494 -0.88125
-1.4484e-07 0.00110514 -0.8775 -1.53509e-07 0.00110534 -0.87375 -1.62336e-07 0.00110555 -0.87 -1.7129e-07
0.00110577 -0.86625 -1.80314e-07 0.00110598 -0.8625 -1.89341e-07 0.0011062 -0.85875 -1.98331e-07 0.00110642
-0.855 -2.07494e-07 0.00110664 -0.85125 -2.16788e-07 0.00110687 -0.8475 -2.26152e-07 0.0011071 -0.84375
-2.3552e-07 0.00110733 -0.84 -2.44876e-07 0.00110756 -0.83625 -2.54389e-07 0.00110779 -0.8325 -2.64041e-07
0.00110804 -0.82875 -2.73769e-07 0.00110828 -0.825 -2.83502e-07 0.00110853 -0.82125 -2.93173e-07 0.00110877
-0.8175 -3.03062e-07 0.00110902 -0.81375 -3.13099e-07 0.00110928 -0.81 -3.23217e-07 0.00110954 -0.80625
-3.33341e-07 0.0011098 -0.8025 -3.43389e-07 0.00111007 -0.79875 -3.53678e-07 0.00111034 -0.795 -3.64122e-07
0.00111061 -0.79125 -3.74653e-07 0.00111089 -0.7875 -3.8519e-07 0.00111117 -0.78375 -3.95707e-07 0.00111145
-0.78 -4.06415e-07 0.00111174 -0.77625 -4.17284e-07 0.00111203 -0.7725 -4.28243e-07 0.00111233 -0.76875
-4.39208e-07 0.00111263 -0.765 -4.50152e-07 0.00111293 -0.76125 -4.613e-07 0.00111324 -0.7575 -4.7262e-07
0.00111356 -0.75375 -4.84035e-07 0.00111388 -0.75 -4.95457e-07 0.0011142 -0.74625 -5.06747e-07 0.00111452
-0.7425 -5.18361e-07 0.00111485 -0.73875 -5.30152e-07 0.00111519 -0.735 -5.42044e-07 0.00111553 -0.73125
-5.53943e-07 0.00111588 -0.7275 -5.65686e-07 0.00111622 -0.72375 -5.77782e-07 0.00111658 -0.72 -5.90058e-07
0.00111694 -0.71625 -6.02436e-07 0.00111731 -0.7125 -6.14823e-07 0.00111768 -0.70875 -6.27025e-07 0.00111805
-0.705 -6.39618e-07 0.00111843 -0.70125 -6.52399e-07 0.00111882 -0.6975 -6.65287e-07 0.00111922 -0.69375
-6.78184e-07 0.00111962 -0.69 -6.91057e-07 0.00112002 -0.68625 -7.04171e-07 0.00112043 -0.6825 -7.1748e-07
0.00112085 -0.67875 -7.30902e-07 0.00112127 -0.675 -7.44333e-07 0.0011217 -0.67125 -7.5774e-07 0.00112213
-0.6675 -7.71409e-07 0.00112257 -0.66375 -7.85288e-07 0.00112302 -0.66 -7.9929e-07 0.00112348 -0.65625
-8.13304e-07 0.00112394 -0.6525 -8.27019e-07 0.0011244 -0.64875 -8.41284e-07 0.00112487 -0.645 -8.5577e-07
0.00112536 -0.64125 -8.70385e-07 0.00112585 -0.6375 -8.85013e-07 0.00112635 -0.63375 -8.99618e-07 0.00112684
-0.63 -9.14504e-07 0.00112735 -0.62625 -9.29609e-07 0.00112788 -0.6225 -9.44844e-07 0.00112841 -0.61875
-9.60094e-07 0.00112894 -0.615 -9.75323e-07 0.00112947 -0.61125 -9.9085e-07 0.00113002 -0.6075 -1.00661e-06
0.00113058 -0.60375 -1.02251e-06 0.00113115 -0.6 -1.03842e-06 0.00113172 -0.59625 -1.05432e-06 0.00113229
-0.5925 -1.0703e-06 0.00113287 -0.58875 -1.08631e-06 0.00113344 -0.585 -1.10246e-06 0.00113402 -0.58125
-1.11885e-06 0.00113462 -0.5775 -1.13491e-06 0.00113523 -0.57375 -1.15161e-06 0.00113585 -0.57 -1.16834e-06
0.00113646 -0.56625 -1.18521e-06 0.00113709 -0.5625 -1.20232e-06 0.00113773 -0.55875 -1.219e-06 0.00113839
-0.555 -1.23644e-06 0.00113905 -0.55125 -1.25389e-06 0.00113971 -0.5475 -1.2715e-06 0.00114039 -0.54375
-1.28934e-06 0.00114108 -0.54 -1.30741e-06 0.00114178 -0.53625 -1.32559e-06 0.00114249 -0.5325 -1.34379e-06
0.0011432 -0.52875 -1.36214e-06 0.00114392 -0.525 -1.38074e-06 0.00114466 -0.52125 -1.39864e-06 0.00114542
-0.5175 -1.4176e-06 0.00114618 -0.51375 -1.43658e-06 0.00114694 -0.51 -1.45572e-06 0.00114771 -0.50625
-1.47511e-06 0.0011485 -0.5025 -1.49365e-06 0.00114931 -0.49875 -1.51343e-06 0.00115012 -0.495 -1.53324e-06
0.00115093 -0.49125 -1.55322e-06 0.00115175 -0.4875 -1.57346e-06 0.00115259 -0.48375 -1.59397e-06 0.00115345
-0.48 -1.61463e-06 0.00115431 -0.47625 -1.63533e-06 0.00115517 -0.4725 -1.65622e-06 0.00115605 -0.46875
-1.67736e-06 0.00115694 -0.465 -1.69881e-06 0.00115785 -0.46125 -1.72042e-06 0.00115876 -0.4575 -1.74208e-06
0.00115967 -0.45375 -1.76392e-06 0.00116059 -0.45 -1.78603e-06 0.00116152 -0.44625 -1.80846e-06 0.00116248
-0.4425 -1.83109e-06 0.00116343 -0.43875 -1.85375e-06 0.00116439 -0.435 -1.87661e-06 0.00116535 -0.43125
-1.89975e-06 0.00116633 -0.4275 -1.92103e-06 0.00116731 -0.42375 -1.94473e-06 0.0011683 -0.42 -1.96847e-06
0.00116929 -0.41625 -1.99243e-06 0.00117029 -0.4125 -2.01666e-06 0.00117129 -0.40875 -2.03865e-06 0.0011723
-0.405 -2.06351e-06 0.00117331 -0.40125 -2.08843e-06 0.00117432 -0.3975 -2.11356e-06 0.00117533 -0.39375
-2.13898e-06 0.00117633 -0.39 -2.16485e-06 0.00117734 -0.38625 -2.19099e-06 0.00117834 -0.3825 -2.21718e-06
0.00117935 -0.37875 -2.24359e-06 0.00118035 -0.375 -2.2703e-06 0.00118133 -0.37125 -2.29752e-06 0.00118229
-0.3675 -2.32502e-06 0.00118326 -0.36375 -2.3526e-06 0.00118422 -0.36 -2.38041e-06 0.00118517 -0.35625
-2.40851e-06 0.00118607 -0.3525 -2.43259e-06 0.00118694 -0.34875 -2.46158e-06 0.0011878 -0.345 -2.49066e-06
0.00118867 -0.34125 -2.51996e-06 0.0011895 -0.3375 -2.54955e-06 0.00119025 -0.33375 -2.5798e-06 0.00119095
-0.33 -2.61041e-06 0.00119164 -0.32625 -2.64111e-06 0.00119233 -0.3225 -2.67203e-06 0.00119295 -0.31875
-2.70323e-06 0.00119347 -0.315 -2.73519e-06 0.00119388 -0.31125 -2.76754e-06 0.0011943 -0.3075 -2.79999e-06
0.00119471 -0.30375 -2.83264e-06 0.00119501 -0.3 -2.86553e-06 0.00119515 -0.29625 -2.89121e-06 0.00119513
-0.2925 -2.92548e-06 0.00119488 -0.28875 -2.95995e-06 0.00119439 -0.285 -2.9946e-06 0.00119373 -0.28125
-3.02932e-06 0.00119308 -0.2775 -3.05519e-06 0.00119242 -0.27375 -3.09125e-06 0.00119143 -0.27 -3.12745e-06
0.0011901 -0.26625 -3.16378e-06 0.00118854 -0.2625 -3.20019e-06 0.00118697 -0.25875 -3.22597e-06 0.00118541
-0.255 -3.2638e-06 0.00118336 -0.25125 -3.30167e-06 0.00118084 -0.2475 -3.33959e-06 0.00117798 -0.24375
-3.37757e-06 0.00117512 -0.24 -3.41678e-06 0.00117228 -0.23625 -3.45629e-06 0.0011688 -0.2325 -3.49566e-06
0.00116469 -0.22875 -3.53495e-06 0.00116017 -0.225 -3.5743e-06 0.00115566 -0.22125 -3.59843e-06 0.00115118
-0.2175 -3.63887e-06 0.00114584 -0.21375 -3.67879e-06 0.00113963 -0.21 -3.7184e-06 0.00113292 -0.20625
-3.75804e-06 0.00112626 -0.2025 -3.77991e-06 0.00111964 -0.19875 -3.82127e-06 0.00111181 -0.195 -3.86169e-06
0.00110278 -0.19125 -3.90162e-06 0.00109317 -0.1875 -3.94155e-06 0.00108366 -0.18375 -3.98275e-06 0.00107424
-0.18 -4.02272e-06 0.00106329 -0.17625 -4.06115e-06 0.00105084 -0.1725 -4.09892e-06 0.00103788 -0.16875
-4.13668e-06 0.00102509 -0.165 -4.17633e-06 0.00101248 -0.16125 -4.21391e-06 0.000998096 -0.1575 -4.24931e-06
0.000981966 -0.15375 -4.28412e-06 0.0009656 -0.15 -4.31894e-06 0.000949535 -0.14625 -4.35587e-06 0.000933763
-0.1425 -4.38886e-06 0.000915996 -0.13875 -4.41802e-06 0.000896294 -0.135 -4.44698e-06 0.000876856 -0.13125
-4.47606e-06 0.000857877 -0.1275 -4.47623e-06 0.000839337 -0.12375 -4.5031e-06 0.000818736 -0.12 -4.52673e-06
0.000796479 -0.11625 -4.55065e-06 0.000774865 -0.1125 -4.57487e-06 0.000753872 -0.10875 -4.56875e-06 0.000733474
-0.105 -4.58772e-06 0.000711057 -0.10125 -4.60279e-06 0.00068768 -0.0975 -4.61847e-06 0.000665096 -0.0937499
-4.63475e-06 0.000643278 -0.0899999 -4.65306e-06 0.000622187 -0.0862499 -4.66691e-06 0.000599569 -0.0824999 -4.67984e-06
0.000576889 -0.0787499 -4.69356e-06 0.000555071 -0.0749999 -4.70803e-06 0.000534083 -0.0712499 -4.72421e-06 0.00051388
-0.0674999 -4.74004e-06 0.000493601 -0.0637499 -4.75658e-06 0.000473971 -0.0599999 -4.77382e-06 0.000455109 -0.0562499
-4.79174e-06 0.000436986 -0.0524999 -4.77894e-06 0.00041956 -0.0487498 -4.7916e-06 0.000404483 -0.0449998 -4.80496e-06
0.000389932 -0.0412498 -4.81901e-06 0.000375888 -0.0374998 -4.83372e-06 0.000362335 -0.0337498 -4.84919e-06 0.000349248
-0.0299998 -4.85778e-06 0.00034062 -0.0262498 -4.86692e-06 0.000332198 -0.0224998 -4.87659e-06 0.000323975 -0.0187499
-4.88679e-06 0.000315949 -0.0149999 -4.89695e-06 0.000308113 -0.0112499 -4.90615e-06 0.000304687 -0.0074999 -4.9156e-06
0.000301298 -0.00374991 -4.92529e-06 0.000297946 6.11916e-08 -4.93522e-06 0.000294629 0.00375005 -4.91909e-06 0.000291349
0.00750005 -4.92557e-06 0.000288112 0.01125 -4.93226e-06 0.00028491 0.015 -4.93916e-06 0.000281742 0.01875
-4.94626e-06 0.000278608 0.0225 -4.93416e-06 0.000277572 0.02625 -4.94199e-06 0.000276543 0.03 -4.9499e-06
0.000275518 0.03375 -4.95788e-06 0.000274497 0.0375 -4.96594e-06 0.00027348 0.04125 -4.95389e-06 0.000272992
0.045 -4.95886e-06 0.000272508 0.04875 -4.96387e-06 0.000272025 0.0525 -4.96892e-06 0.000271542 0.05625
-4.97401e-06 0.000271061 0.06 -4.97836e-06 0.000270863 0.06375 -4.98053e-06 0.000270667 0.0675 -4.98272e-06
0.000270472 0.07125 -4.98493e-06 0.000270276 0.075 -4.98715e-06 0.00027008 0.07875 -4.97497e-06 0.000270034
0.0825 -4.97568e-06 0.000269989 0.08625 -4.97639e-06 0.000269943 0.09 -4.97711e-06 0.000269898 0.09375
-4.97783e-06 0.000269853 0.0975 -4.96757e-06 0.000269858 0.10125 -4.96943e-06 0.000269865 0.105 -4.97129e-06
0.000269872 0.10875 -4.97316e-06 0.000269879 0.1125 -4.97503e-06 0.000269885 0.11625 -4.98583e-06 0.000269905
[...]
POINT_DATA 19447
FIELD attributes 3
age 1 19447 float
0 7.30157e-05 0.000146035 0.000219058 0.000292085 0.000365116 0.000553997 0.000742879 0.00093176 0.00112066 0.00130959
0.00149855 0.00168752 0.00187648 0.00206546 0.00225448 0.0023323 0.00241012 0.00248795 0.00256577 0.00264354
0.00275478 0.00286602 0.00297727 0.00308854 0.00319982 0.00338897 0.00357811 0.00376725 0.00395642 0.00414562
0.00433487 0.00452411 0.00471336 0.00490262 0.00509193 0.00528128 0.00547068 0.00566013 0.00584959 0.00603906
0.00622852 0.00641804 0.0066076 0.00679719 0.00698678 0.00717638 0.00736602 0.00755571 0.00774543 0.00793516
0.00812488 0.00831466 0.0085045 0.00869436 0.00888423 0.00907409 0.00926402 0.009454 0.00964402 0.00983404
0.0100241 0.0102141 0.0104043 0.0105945 0.0107847 0.0109748 0.0111651 0.0113554 0.0115458 0.0117361
0.0119265 0.012117 0.0123075 0.012498 0.0126886 0.0128791 0.0130698 0.0132605 0.0134513 0.013642
0.0138328 0.0140236 0.0142146 0.0144056 0.0145966 0.0147876 0.0149787 0.0151698 0.0153611 0.0155523
0.0157435 0.0159349 0.0161263 0.0163178 0.0165094 0.0167009 0.0168925 0.0170842 0.017276 0.0174678
0.0176596 0.0178515 0.0180436 0.0182357 0.0184278 0.0186199 0.0188122 0.0190046 0.019197 0.0193895
0.019582 0.0197746 0.0199673 0.0201602 0.020353 0.0205459 0.0207387 0.0209316 0.0211245 0.0213176
0.0215109 0.0217042 0.0218974 0.0220908 0.0222844 0.0224781 0.0226718 0.0228655 0.0230594 0.0232534
0.0234476 0.0236419 0.0238361 0.0240305 0.024225 0.0244198 0.0246146 0.0248094 0.0250043 0.0251995
0.0253949 0.0255903 0.0257857 0.0259813 0.0261771 0.0263731 0.0265692 0.0267653 0.0269616 0.0271581
0.0273549 0.0275517 0.0277486 0.0279456 0.0281429 0.0283406 0.0285382 0.0287359 0.0289337 0.029132
0.0293305 0.0295291 0.0297276 0.0299265 0.0301256 0.0303252 0.0305248 0.0307243 0.0309242 0.0311245
0.0313251 0.0315258 0.0317265 0.0319275 0.0321289 0.0323308 0.0325327 0.0327346 0.0329369 0.0331396
0.0333428 0.033546 0.0337493 0.0339529 0.034157 0.0343616 0.0345663 0.034771 0.0349761 0.0351817
0.0353879 0.035594 0.0358003 0.0360069 0.0362141 0.0364219 0.0366303 0.0368393 0.0370487 0.0372581
0.0374675 0.0376775 0.037888 0.038099 0.03831 0.0385209 0.0387324 0.0389444 0.0391568 0.0393691
0.0395813 0.039794 0.0400072 0.0402206 0.0404339 0.040647 0.0408605 0.0410743 0.0412882 0.0415018
0.0417154 0.0419289 0.0421424 0.0423559 0.042569 0.0427819 0.0429944 0.0432065 0.0434182 0.0436295
0.0438405 0.0440506 0.0442598 0.0444684 0.0446767 0.0448845 0.0450909 0.0452958 0.0455001 0.0457041
0.0459076 0.046109 0.0463085 0.0465076 0.0467064 0.0469048 0.0471005 0.0472943 0.047488 0.0476814
0.0478746 0.0480644 0.0482529 0.0484413 0.0486298 0.0488181 0.0490028 0.049187 0.0493714 0.0495559
0.0497404 0.0499217 0.0501031 0.0502847 0.0504666 0.0506486 0.0508286 0.0510087 0.051189 0.0513694
0.0515501 0.05173 0.05191 0.0520901 0.0522702 0.0524505 0.0526308 0.0528112 0.0529916 0.0531722
0.0533528 0.0535335 0.0537142 0.0538949 0.0540756 0.0542567 0.0544377 0.0546188 0.0547999 0.054981
0.0551624 0.0553438 0.0555252 0.0557067 0.0558881 0.0560698 0.0562516 0.0564333 0.0566151 0.0567968
0.0569788 0.0571609 0.0573429 0.0575249 0.057707 0.0578893 0.0580716 0.0582539 0.0584363 0.0586186
0.0588012 0.0589838 0.0591664 0.059349 0.0595316 0.0597145 0.0598975 0.0600804 0.0602633 0.0604462
0.0606294 0.0608126 0.0609958 0.061179 0.0613622 0.0615458 0.0617293 0.0619128 0.0620963 0.0622798
0.0624636 0.0626475 0.0628313 0.0630151 0.0631989 0.063383 0.063567 0.0637511 0.0639352 0.0641193
0.0643036 0.064488 0.0646723 0.0648567 0.065041 0.0652256 0.0654102 0.0655948 0.0657793 0.0659639
0.0661487 0.0663335 0.0665183 0.0667031 0.0668879 0.0670729 0.0672581 0.0674432 0.0676284 0.0678136
0.0679988 0.0681841 0.0683694 0.0685547 0.0687401 0.0689254 0.0691109 0.0692963 0.0694818 0.0696672
0.0698527 0.0700383 0.0702239 0.0704095 0.070595 0.0707806 0.0709663 0.071152 0.0713377 0.0715234
0.0717091 0.0718948 0.0720806 0.0722664 0.0724521 0.0726379 0.0728237 0.0730096 0.0731954 0.0733812
0.073567 0.0737529 0.0739388 0.0741246 0.0743105 0.0744964 0.0746823 0.0748681 0.075054 0.0752399
0.0754258 0.0756117 0.0757976 0.0759834 0.0761693 0.0763552 0.0765411 0.0767269 0.0769128 0.0770986
0.0772845 0.0774703 0.0776561 0.0778419 0.0780278 0.0782136 0.0783994 0.0785851 0.0787709 0.0789567
0.0791425 0.0793282 0.0795139 0.0796997 0.0798854 0.0800712 0.0802569 0.0804426 0.0806283 0.080814
0.0809998 0.0811855 0.0813712 0.0815569 0.0817427 0.0819284 0.0821141 0.0822999 0.0824856 0.0826713
0.0828571 0.0830429 0.0832286 0.0834144 0.0836002 0.083786 0.0839718 0.0841576 0.0843434 0.0845293
0.0847152 0.084901 0.0850869 0.0852728 0.0854587 0.0856446 0.0858306 0.0860165 0.0862025 0.0863884
0.0865744 0.0867604 0.0869465 0.0871325 0.0873185 0.0875046 0.0876906 0.0878767 0.0880627 0.0882488
0.0884349 0.0886211 0.0888072 0.0889933 0.0891794 0.0893656 0.0895518 0.089738 0.0899241 0.0901103
0.0902966 0.0904828 0.090669 0.0908552 0.0910415 0.0912277 0.091414 0.0916003 0.0917866 0.0919728
0.0921592 0.0923455 0.0925318 0.0927181 0.0929044 0.0930908 0.0932772 0.0934636 0.0936499 0.0938363
0.0940227 0.0942091 0.0943955 0.0945819 0.0947684 0.0949548 0.0951413 0.0953277 0.0955142 0.0957006
0.0958871 0.0960736 0.0962602 0.0964466 0.0966332 0.0968197 0.0970063 0.0971929 0.0973795 0.0975661
0.097631 0.0976958 0.0977606 0.0978255 0.097887 0.0980095 0.098132 0.0982545 0.098377 0.0984995
0.0986862 0.0988729 0.0990596 0.0992464 0.0994331 0.0996199 0.0998067 0.0999934 0.10018 0.100367
0.100554 0.100741 0.100927 0.101114 0.101301 0.101488 0.101675 0.101862 0.102048 0.102235
0.102422 0.102609 0.102796 0.102983 0.10317 0.103357 0.103545 0.103732 0.103919 0.104107
0.104294 0.104482 0.104669 0.104857 0.105044 0.105232 0.10542 0.105608 0.105796 0.105984
0.106172 0.106361 0.106549 0.106738 0.106926 0.107115 0.107304 0.107493 0.107682 0.107871
0.10806 0.108249 0.108439 0.108628 0.108817 0.109007 0.109197 0.109387 0.109576 0.109766
0.109956 0.110146 0.110336 0.110526 0.110717 0.110907 0.111097 0.111287 0.111478 0.111668
0.111858 0.112049 0.112239 0.112429 0.11262 0.11281 0.113001 0.113191 0.113382 0.113572
0.113763 0.113953 0.114144 0.114334 0.114525 0.114716 0.114906 0.115097 0.115288 0.115478
0.115669 0.115859 0.11605 0.116241 0.116431 0.116622 0.116813 0.117003 0.117194 0.117385
0.117575 0.117766 0.117957 0.118147 0.118338 0.118528 0.118719 0.11891 0.1191 0.119291
0.119481 0.119672 0.119863 0.120053 0.120244 0.120434 0.120625 0.120815 0.121006 0.121196
0.121387 0.121577 0.121768 0.121959 0.122149 0.122339 0.12253 0.122721 0.122911 0.123102
0.123292 0.123482 0.123673 0.123863 0.124054 0.124244 0.124435 0.124625 0.124816 0.125006
0.125196 0.125387 0.125577 0.125768 0.125958 0.126148 0.126339 0.126529 0.12672 0.12691
0.1271 0.127291 0.127481 0.127671 0.127862 0.128052 0.128242 0.128433 0.128623 0.128814
0.129004 0.129194 0.129384 0.129575 0.129765 0.129955 0.130145 0.130336 0.130526 0.130716
0.130906 0.131097 0.131287 0.131477 0.131667 0.131857 0.132048 0.132238 0.132428 0.132618
0.132808 0.132998 0.133189 0.133379 0.133569 0.133759 0.133949 0.134139 0.134329 0.134519
0.134709 0.134899 0.135089 0.135279 0.135469 0.135659 0.135849 0.136039 0.136229 0.136419
0.136609 0.136799 0.136989 0.137179 0.137369 0.137558 0.137748 0.137938 0.138128 0.138318
0.138507 0.138697 0.138887 0.139077 0.139267 0.139456 0.139646 0.139836 0.140026 0.140216
0.140405 0.140595 0.140785 0.140974 0.141164 0.141353 0.141543 0.141733 0.141923 0.142112
0.142301 0.142491 0.142681 0.142871 0.14306 0.143249 0.143439 0.143629 0.143818 0.144008
0.144197 0.144387 0.144576 0.144766 0.144956 0.145144 0.145334 0.145524 0.145713 0.145903
0.146092 0.146281 0.146471 0.14666 0.14685 0.147038 0.147227 0.147417 0.147606 0.147796
0.147984 0.148173 0.148363 0.148552 0.148741 0.14893 0.149119 0.149308 0.149497 0.149686
0.149875 0.150064 0.150253 0.150442 0.150631 0.150819 0.151008 0.151197 0.151386 0.151575
0.151951 0.152328 0.152705 0.153081 0.153458 0.154209 0.15496 0.155712 0.156463 0.157214
0.158715 0.160215 0.161716 0.163217 0.164717 0.166218 0.167718 0.169218 0.170719 0.172219
0.175219 0.178219 0.18122 0.18422 0.18722 0.19322 0.19922 0.20522 0.21122 0.217221
0.223221 0.229221 0.235221 0.241221 0.247221 0.253221 0.259221 0.265221 0.271221 0.277221
0.283221 0.289221 0.295221 0.301221 0.307221 0.313221 0.319221 0.325222 0.331222 0.337222
0.343222 0.349222 0.355222 0.361222 0.367222 0.373222 0.379222 0.385222 0.391222 0.397222
0.403222 0.403284 0 7.36896e-05 0.000147383 0.00022108 0.000294782 0.000368487 0.000530277 0.000692091
0.00085393 0.00101579 0.00116769 0.00119855 0.00122941 0.00126027 0.00129113 0.001322 0.0015128 0.00170363
0.0018945 0.00208541 0.00227635 0.00246732 0.00265834 0.00284939 0.00304048 0.00323161 0.00342277 0.00361398
0.00380523 0.00399651 0.00418784 0.00437921 0.00457062 0.00476208 0.00495358 0.00514512 0.0053367 0.00552834
0.00572002 0.00591174 0.00610351 0.00629533 0.0064872 0.00667912 0.00687109 0.00706311 0.00725518 0.0074473
0.00763948 0.00783171 0.00802399 0.00821633 0.00840873 0.00860118 0.0087937 0.00898627 0.00917889 0.00937158
0.00956434 0.00975715 0.00995003 0.010143 0.010336 0.010529 0.0107222 0.0109154 0.0111087 0.011302
0.0114954 0.0116889 0.0118825 0.0120761 0.0122699 0.0124636 0.0126575 0.0128515 0.0130455 0.0132396
0.0134338 0.0136281 0.0138225 0.0140169 0.0142115 0.0144061 0.0146008 0.0147957 0.0149906 0.0151856
0.0153807 0.0155759 0.0157712 0.0159667 0.0161622 0.0163578 0.0165536 0.0167494 0.0169454 0.0171414
0.0173376 0.017534 0.0177304 0.0179269 0.0181236 0.0183204 0.0185174 0.0187144 0.0189116 0.019109
0.0193064 0.0195041 0.0197018 0.0198997 0.0200978 0.020296 0.0204944 0.0206929 0.0208916 0.0210904
0.0212894 0.0214886 0.021688 0.0218875 0.0220872 0.0222871 0.0224872 0.0226875 0.0228879 0.0230886
0.0232894 0.0234905 0.0236918 0.0238933 0.024095 0.0242969 0.0244991 0.0247015 0.0249041 0.025107
0.0253101 0.0255135 0.0257171 0.025921 0.0261251 0.0263296 0.0265343 0.0267393 0.0269445 0.0271501
0.027356 0.0275622 0.0277687 0.0279755 0.0281827 0.0283902 0.0285981 0.0288063 0.0290148 0.0292237
0.029433 0.0296427 0.0298528 0.0300633 0.0302742 0.0304855 0.0306973 0.0309095 0.0311221 0.0313352
0.0315488 0.0317629 0.0319775 0.0321925 0.0324081 0.0326242 0.0328409 0.0330581 0.0332759 0.0334943
0.0337133 0.0339329 0.0341531 0.0343739 0.0345955 0.0348177 0.0350406 0.0352642 0.0354885 0.0357135
0.0359394 0.036166 0.0363934 0.0366216 0.0368506 0.0370806 0.0373114 0.0375431 0.0377757 0.0380092
0.0382437 0.0384792 0.0387157 0.0389532 0.0391918 0.0394316 0.0396724 0.0399143 0.0401573 0.0404015
0.0406468 0.0408933 0.0411411 0.0413901 0.0416405 0.0418921 0.042145 0.0423993 0.0426548 0.0429114
0.0431693 0.0434284 0.0436892 0.0439512 0.0442143 0.0444787 0.0447441 0.0450114 0.0452792 0.0455476
0.0458165 0.0460858 0.0463577 0.046485 0.0466122 0.0467393 0.0468663 0.0469462 0.0471001 0.0472538
0.0474074 0.0475607 0.0477151 0.0479859 0.048255 0.0485222 0.0487874 0.0490558 0.0492017 0.0493465
0.0494901 0.0496326 0.0497425 0.0498631 0.0499829 0.050102 0.0502202 0.0503387 0.0505861 0.0508283
0.0510656 0.0512982 0.0515273 0.0515426 0.0515578 0.051573 0.0515882 0.0516035 0.0518103 0.0520124
0.0522102 0.0524038 0.0525913 0.0527025 0.0528119 0.0529198 0.0530262 0.0531598 0.0532344 0.0533083
0.0533815 0.0534541 0.0535256 0.0536999 0.0538707 0.0540379 0.0542019 0.0543596 0.0544977 0.0546344
0.0547696 0.0549033 0.0551256 0.0551399 0.0551542 0.0551685 0.0551828 0.055199 0.0553308 0.0554621
0.0555929 0.0557231 0.055852 0.0559949 0.0561379 0.0562811 0.0564244 0.0565676 0.0567109 0.0568545
0.0569985 0.0571428 0.0572874 0.0574325 0.0575779 0.0577236 0.0578697 0.0580162 0.058163 0.0583101
0.0584575 0.0586053 0.0587534 0.0589018 0.0590505 0.0591995 0.0593488 0.0594985 0.0596484 0.0597987
0.0599492 0.0601 0.0602511 0.0604026 0.0605543 0.0607064 0.0608587 0.0610114 0.0611644 0.0613177
0.0614713 0.0616252 0.0617795 0.0619341 0.0620891 0.0622444 0.0624 0.062556 0.0627123 0.062869
0.063026 0.0631833 0.063341 0.0634991 0.0636575 0.0638162 0.0639753 0.0641347 0.0642945 0.0644546
0.0646151 0.0647759 0.064937 0.0650984 0.0652602 0.0654223 0.0655847 0.0657475 0.0659106 0.0660739
0.0662376 0.0664015 0.0665658 0.0667304 0.0668952 0.0670604 0.0672258 0.0673915 0.0675574 0.0677236
0.0678901 0.0680569 0.0682239 0.0683911 0.0685586 0.0687264 0.0688944 0.0690626 0.069231 0.0693997
0.0695685 0.0697376 0.0699069 0.0700764 0.0702462 0.0704161 0.0705862 0.0707564 0.0709269 0.0710975
0.0712683 0.0714393 0.0716105 0.0717818 0.0719532 0.0721249 0.0722966 0.0724685 0.0726406 0.0728127
0.072985 0.0731574 0.07333 0.0735026 0.0736754 0.0738482 0.0740212 0.0741942 0.0743674 0.0745406
0.0747138 0.0748871 0.0750605 0.075234 0.0754075 0.0755811 0.0757547 0.0759283 0.076102 0.0762757
0.0764493 0.076623 0.0767967 0.0769704 0.0771441 0.0773177 0.0774914 0.077665 0.0778386 0.0780121
0.0781856 0.0783591 0.0785325 0.0787059 0.0788792 0.0790525 0.0792257 0.0793989 0.079572 0.0797451
0.0799181 0.080091 0.080264 0.0804368 0.0806097 0.0807826 0.0809554 0.0811282 0.081301 0.0814737
0.0816465 0.0818194 0.0819922 0.0821651 0.082338 0.082511 0.082684 0.0828571 0.0830302 0.0832034
0.0833767 0.08355 0.0837235 0.083897 0.0840706 0.0842444 0.0844182 0.0845921 0.0847662 0.0849403
0.0851145 0.0852888 0.0854632 0.0856377 0.0858124 0.0859871 0.086162 0.086337 0.086512 0.0866872
0.0868624 0.0870377 0.0872132 0.0873887 0.0875644 0.0877401 0.087916 0.0880919 0.088268 0.0884441
0.0886203 0.0887966 0.088973 0.0891495 0.0893261 0.0895028 0.0896796 0.0898565 0.0900334 0.0902105
0.0903876 0.0905648 0.0907421 0.0909195 0.091097 0.0912746 0.0914523 0.0916301 0.091808 0.0919859
0.0921639 0.092342 0.0925202 0.0926985 0.0928769 0.0930554 0.0932339 0.0934126 0.0935913 0.0937701
0.093949 0.094128 0.0943071 0.0944862 0.0946655 0.0948449 0.0950243 0.0952038 0.0953835 0.0955632
0.0957429 0.0959228 0.0961028 0.0961048 0.0961068 0.0961088 0.0961108 0.0961128 0.0962909 0.0964691
0.0966474 0.0968258 0.0970044 0.0971851 0.0973659 0.0975469 0.0977279 0.0979092 0.0980911 0.0982732
0.0984554 0.0986378 0.0988204 0.0990022 0.0991841 0.099366 0.099548 0.0997301 0.0999125 0.100095
0.100277 0.10046 0.100642 0.100825 0.101008 0.10119 0.101373 0.101557 0.10174 0.101924
0.102108 0.102292 0.102477 0.102662 0.102847 0.103033 0.103219 0.103406 0.103594 0.103782
0.103972 0.104162 0.104353 0.104544 0.104737 0.10493 0.105124 0.10532 0.105516 0.105715
0.105914 0.106115 0.106316 0.106519 0.106724 0.106929 0.107136 0.107344 0.107555 0.107767
0.107981 0.108196 0.108412 0.108631 0.108851 0.109072 0.109295 0.10952 0.109747 0.109976
0.110206 0.110438 0.110672 0.110908 0.111145 0.111383 0.111624 0.111865 0.112109 0.112355
0.112601 0.11285 0.113099 0.113351 0.113604 0.113858 0.114113 0.11437 0.114628 0.114887
0.115148 0.115409 0.115672 0.115936 0.116201 0.116466 0.116733 0.117001 0.11727 0.117539
0.117809 0.118079 0.118351 0.118623 0.118896 0.119169 0.119443 0.119718 0.119993 0.120268
0.120544 0.12082 0.121096 0.121372 0.121649 0.121927 0.122204 0.122482 0.12276 0.123038
0.123316 0.123594 0.123872 0.124151 0.124429 0.124707 0.124986 0.125264 0.125282 0.125299
0.125317 0.125335 0.125352 0.125613 0.125874 0.126134 0.126395 0.126655 0.126933 0.127211
0.127489 0.127766 0.128044 0.128321 0.128598 0.128875 0.129151 0.129428 0.129703 0.129979
0.130255 0.13053 0.130806 0.13108 0.131355 0.131629 0.131904 0.132178 0.132451 0.132724
0.132998 0.13327 0.133543 0.133815 0.134087 0.134359 0.134632 0.134903 0.135173 0.135445
0.135716 0.135986 0.136257 0.136526 0.136796 0.137066 0.137336 0.137606 0.137873 0.138142
0.138411 0.13868 0.138949 0.139215 0.139483 0.13975 0.140018 0.140284 0.14055 0.140816
0.141081 0.141347 0.141612 0.141794 0.141977 0.142159 0.142341 0.142531 0.142611 0.142691
0.142771 0.142851 0.142932 0.143195 0.143457 0.14372 0.143982 0.144245 0.144506 0.144767
0.145029 0.14529 0.14555 0.145809 0.14607 0.14633 0.146589 0.146849 0.147106 0.147365
0.147623 0.147882 0.148139 0.148394 0.148651 0.148909 0.149166 0.149421 0.149675 0.14993
0.150186 0.150442 0.150696 0.150947 0.1512 0.151455 0.15171 0.151962 0.152212 0.152463
0.152717 0.15297 0.15322 0.153468 0.153718 0.15397 0.154222 0.154471 0.154718 0.154966
0.155216 0.155467 0.155714 0.15596 0.156207 0.156456 0.156704 0.156951 0.157195 0.157441
0.157688 0.157935 0.15818 0.158424 0.158669 0.158914 0.159159 0.159404 0.159646 0.15989
0.160134 0.160378 0.160621 0.160863 0.161105 0.161348 0.16159 0.161833 0.162073 0.162315
0.162556 0.162797 0.163038 0.163278 0.163518 0.163758 0.163998 0.164238 0.164477 0.164716
0.164955 0.165193 0.165432 0.16567 0.165908 0.166146 0.166383 0.16662 0.166651 0.166681
0.166712 0.166742 0.166772 0.167215 0.167656 0.168096 0.168534 0.168943 0.16976 0.170581
0.171403 0.172221 0.173035 0.174574 0.17612 0.177661 0.179197 0.18073 0.182242 0.18376
0.185276 0.186791 0.188305 0.191317 0.194332 0.197346 0.200358 0.203368 0.209375 0.215382
0.221389 0.227396 0.233402 0.239403 0.245408 0.251412 0.257416 0.263419 0.26942 0.275424
0.281427 0.28743 0.293433 0.299434 0.305436 0.311439 0.317442 0.323444 0.329445 0.335447
0.341449 0.347452 0.353454 0.359454 0.365456 0.371458 0.37746 0.383462 0.389462 0.395464
0.401465 0.407467 0.413468 0.419469 0.423294 0 7.36655e-05 0.000147336 0.00022101 0.00029469
0.000368374 0.000531579 0.000694808 0.000858061 0.00102134 0.00117408 0.00120358 0.00123308 0.00126259 0.00129209
0.0013216 0.00151234 0.00170311 0.00189392 0.00208476 0.00227564 0.00246655 0.0026575 0.00284849 0.00303951
0.00323057 0.00342167 0.00361281 0.00380398 0.0039952 0.00418645 0.00437775 0.00456909 0.00476047 0.00495189
0.00514335 0.00533486 0.00552641 0.00571801 0.00590965 0.00610134 0.00629308 0.00648486 0.00667669 0.00686857
0.0070605 0.00725248 0.00744451 0.00763659 0.00782872 0.00802091 0.00821315 0.00840544 0.00859779 0.0087902
0.00898267 0.00917519 0.00936777 0.00956041 0.00975311 0.00994587 0.0101387 0.0103316 0.0105245 0.0107175
0.0109106 0.0111038 0.011297 0.0114903 0.0116836 0.0118771 0.0120706 0.0122642 0.0124578 0.0126515
0.0128453 0.0130392 0.0132332 0.0134272 0.0136213 0.0138156 0.0140099 0.0142042 0.0143987 0.0145933
0.0147879 0.0149826 0.0151775 0.0153724 0.0155674 0.0157626 0.0159578 0.0161531 0.0163485 0.0165441
0.0167397 0.0169355 0.0171313 0.0173273 0.0175234 0.0177196 0.0179159 0.0181124 0.0183089 0.0185056
0.0187024 0.0188994 0.0190965 0.0192937 0.019491 0.0196885 0.0198862 0.0200839 0.0202819 0.02048
0.0206782 0.0208766 0.0210751 0.0212738 0.0214727 0.0216717 0.0218709 0.0220703 0.0222699 0.0224696
0.0226696 0.0228697 0.02307 0.0232705 0.0234712 0.0236721 0.0238732 0.0240746 0.0242761 0.0244779
0.0246799 0.0248821 0.0250846 0.0252873 0.0254903 0.0256935 0.025897 0.0261007 0.0263047 0.026509
0.0267135 0.0269184 0.0271235 0.027329 0.0275347 0.0277408 0.0279472 0.0281539 0.0283609 0.0285683
0.0287761 0.0289842 0.0291927 0.0294016 0.0296109 0.0298205 0.0298562 0.0298918 0.0299274 0.0299631
0.029998 0.0301729 0.0303481 0.0305236 0.0306994 0.0308756 0.0310878 0.0313006 0.0315139 0.0317277
0.031942 0.0321568 0.0323722 0.0325882 0.0328047 0.0330219 0.0332396 0.033458 0.033677 0.0338968
0.0341172 0.0343383 0.0345601 0.0347828 0.0350062 0.0352305 0.0354555 0.0356814 0.0359083 0.0361361
0.0363648 0.0365944 0.0368252 0.0370571 0.0372901 0.0375242 0.0377594 0.0379959 0.0382337 0.0384728
0.0387133 0.0389552 0.0391987 0.0394438 0.0396906 0.039939 0.0401891 0.0404411 0.040695 0.0409511
0.0412091 0.0414692 0.0417318 0.041997 0.0422648 0.0425352 0.0428089 0.0430855 0.0433653 0.0436485
0.0439353 0.044225 0.0445188 0.0448168 0.045119 0.0454267 0.0457366 0.046051 0.0463701 0.0466937
0.0470276 0.0471854 0.0473444 0.0475046 0.0476657 0.0477431 0.0479485 0.0481552 0.0483632 0.0485724
0.04879 0.0490906 0.0493934 0.0496978 0.0500013 0.0500919 0.0502112 0.0503301 0.0504487 0.0505669
0.0506897 0.0508866 0.0510813 0.0512739 0.0514642 0.051588 0.0517922 0.0519929 0.0521901 0.0523838
0.0525889 0.0526154 0.0526419 0.0526682 0.0526945 0.05272 0.0529206 0.0531156 0.0533055 0.0534906