# vtk DataFile Version 2.0
tracks
ASCII
DATASET POLYDATA
POINTS 19514 float
-1.001 1e-07 0.0011 -0.99955 9.90453e-08 0.00110002 -0.9981 9.80896e-08 0.00110004 -0.99665 9.71331e-08
0.00110007 -0.9952 9.61756e-08 0.0011001 -0.99375 9.52172e-08 0.00110014 -0.99 9.27176e-08 0.00110024
-0.98625 9.0235e-08 0.00110034 -0.9825 8.77518e-08 0.00110044 -0.97875 8.52582e-08 0.00110054 -0.975
8.2745e-08 0.00110068 -0.97125 8.01969e-08 0.00110083 -0.9675 7.76634e-08 0.00110098 -0.96375 7.51291e-08
0.00110113 -0.96 7.25823e-08 0.00110128 -0.95625 7.0012e-08 0.00110145 -0.9525 6.7412e-08 0.00110162
-0.94875 6.48175e-08 0.00110179 -0.945 6.22221e-08 0.00110196 -0.94125 5.96097e-08 0.00110213 -0.9375
5.69648e-08 0.00110231 -0.93375 5.42767e-08 0.00110248 -0.93 5.15987e-08 0.00110266 -0.92625 4.89197e-08
0.00110284 -0.9225 4.62184e-08 0.00110302 -0.91875 4.34749e-08 0.0011032 -0.915 4.06807e-08 0.00110339
-0.91125 3.78941e-08 0.00110357 -0.9075 3.51065e-08 0.00110376 -0.90375 3.22936e-08 0.00110395 -0.9
2.94328e-08 0.00110414 -0.89625 2.65183e-08 0.00110433 -0.8925 2.35542e-08 0.00110453 -0.88875 2.05345e-08
0.00110473 -0.885 1.74852e-08 0.00110494 -0.88125 1.44347e-08 0.00110514 -0.877704 1.15478e-08 0.00110533
-0.874157 8.60371e-09 0.00110553 -0.870611 5.60132e-09 0.00110573 -0.867065 2.55959e-09 0.00110594 -0.864082
1.7396e-17 0.00110611 -0.863765 -2.71515e-10 0.00110613 -0.863449 -5.43038e-10 0.00110615 -0.863133 -8.14572e-10
0.00110617 -0.862816 -1.08611e-09 0.00110618 -0.8625 -1.35767e-09 0.0011062 -0.85875 -4.57665e-09 0.00110642
-0.855 -7.86792e-09 0.00110664 -0.85125 -1.12313e-08 0.00110687 -0.8475 -1.46332e-08 0.0011071 -0.84375
-1.80365e-08 0.00110733 -0.84 -2.14401e-08 0.00110756 -0.83625 -2.49218e-08 0.00110779 -0.8325 -2.84803e-08
0.00110804 -0.82875 -3.20801e-08 0.00110828 -0.825 -3.56816e-08 0.00110853 -0.82125 -3.92765e-08 0.00110877
-0.8175 -4.29612e-08 0.00110902 -0.81375 -4.67273e-08 0.00110928 -0.81 -5.05374e-08 0.00110954 -0.80625
-5.43493e-08 0.00110981 -0.8025 -5.81501e-08 0.00111007 -0.79875 -6.20506e-08 0.00111034 -0.795 -6.60373e-08
0.00111061 -0.79125 -7.00709e-08 0.00111089 -0.7875 -7.41066e-08 0.00111117 -0.78375 -7.81397e-08 0.00111145
-0.78 -8.22682e-08 0.00111174 -0.77625 -8.64866e-08 0.00111204 -0.7725 -9.07544e-08 0.00111234 -0.76875
-9.50245e-08 0.00111264 -0.765 -9.92912e-08 0.00111294 -0.76125 -1.03655e-07 0.00111324 -0.7575 -1.08109e-07
0.00111356 -0.75375 -1.12613e-07 0.00111388 -0.75 -1.1712e-07 0.0011142 -0.74625 -1.21596e-07 0.00111452
-0.7425 -1.26199e-07 0.00111485 -0.73875 -1.30893e-07 0.00111519 -0.735 -1.35639e-07 0.00111554 -0.73125
-1.40387e-07 0.00111588 -0.7275 -1.45097e-07 0.00111623 -0.72375 -1.49946e-07 0.00111658 -0.72 -1.54891e-07
0.00111695 -0.71625 -1.59889e-07 0.00111732 -0.7125 -1.6489e-07 0.00111769 -0.70875 -1.69844e-07 0.00111806
-0.705 -1.74949e-07 0.00111844 -0.70125 -1.80152e-07 0.00111883 -0.6975 -1.85409e-07 0.00111923 -0.69375
-1.90671e-07 0.00111963 -0.69 -1.95927e-07 0.00112002 -0.68625 -2.01295e-07 0.00112043 -0.6825 -2.06761e-07
0.00112085 -0.67875 -2.12285e-07 0.00112128 -0.675 -2.17812e-07 0.00112171 -0.67125 -2.23334e-07 0.00112214
-0.6675 -2.28966e-07 0.00112258 -0.66375 -2.34694e-07 0.00112303 -0.66 -2.40478e-07 0.00112349 -0.65625
-2.46266e-07 0.00112395 -0.6525 -2.51965e-07 0.00112441 -0.64875 -2.5786e-07 0.00112488 -0.645 -2.63852e-07
0.00112537 -0.64125 -2.69901e-07 0.00112586 -0.6375 -2.75955e-07 0.00112636 -0.63375 -2.82003e-07 0.00112685
-0.63 -2.88173e-07 0.00112736 -0.62625 -2.94445e-07 0.00112789 -0.6225 -3.00778e-07 0.00112842 -0.61875
-3.07117e-07 0.00112895 -0.615 -3.13451e-07 0.00112948 -0.61125 -3.19906e-07 0.00113003 -0.6075 -3.2646e-07
0.00113059 -0.60375 -3.33074e-07 0.00113116 -0.6 -3.39695e-07 0.00113173 -0.59625 -3.46312e-07 0.00113231
-0.5925 -3.5296e-07 0.00113288 -0.58875 -3.59614e-07 0.00113345 -0.585 -3.66328e-07 0.00113403 -0.58125
-3.73139e-07 0.00113463 -0.5775 -3.79853e-07 0.00113525 -0.57375 -3.86785e-07 0.00113586 -0.57 -3.93724e-07
0.00113648 -0.56625 -4.00728e-07 0.0011371 -0.5625 -4.07837e-07 0.00113775 -0.55875 -4.1482e-07 0.00113841
-0.555 -4.22062e-07 0.00113907 -0.55125 -4.29313e-07 0.00113973 -0.5475 -4.36636e-07 0.0011404 -0.54375
-4.44072e-07 0.00114109 -0.54 -4.51616e-07 0.0011418 -0.53625 -4.59202e-07 0.00114251 -0.5325 -4.66797e-07
0.00114322 -0.52875 -4.74468e-07 0.00114394 -0.525 -4.82255e-07 0.00114468 -0.52125 -4.89835e-07 0.00114544
-0.5175 -4.97782e-07 0.0011462 -0.51375 -5.05741e-07 0.00114696 -0.51 -5.13776e-07 0.00114773 -0.50625
-5.21931e-07 0.00114852 -0.5025 -5.29817e-07 0.00114933 -0.49875 -5.38142e-07 0.00115014 -0.495 -5.46479e-07
0.00115095 -0.49125 -5.54898e-07 0.00115177 -0.4875 -5.63441e-07 0.00115261 -0.48375 -5.72112e-07 0.00115347
-0.48 -5.8084e-07 0.00115433 -0.47625 -5.89583e-07 0.0011552 -0.4725 -5.98412e-07 0.00115607 -0.46875
-6.07369e-07 0.00115696 -0.465 -6.16467e-07 0.00115787 -0.46125 -6.25628e-07 0.00115878 -0.4575 -6.34806e-07
0.00115969 -0.45375 -6.44068e-07 0.00116061 -0.45 -6.53453e-07 0.00116155 -0.44625 -6.62983e-07 0.0011625
-0.4425 -6.72583e-07 0.00116346 -0.43875 -6.82201e-07 0.00116441 -0.435 -6.919e-07 0.00116538 -0.43125
-7.01712e-07 0.00116635 -0.4275 -7.1085e-07 0.00116734 -0.42375 -7.20885e-07 0.00116833 -0.42 -7.3094e-07
0.00116932 -0.41625 -7.41081e-07 0.00117032 -0.4125 -7.51338e-07 0.00117132 -0.40875 -7.60771e-07 0.00117233
-0.405 -7.71277e-07 0.00117334 -0.40125 -7.81807e-07 0.00117435 -0.3975 -7.92429e-07 0.00117536 -0.39375
-8.03176e-07 0.00117637 -0.39 -8.1411e-07 0.00117737 -0.38625 -8.25143e-07 0.00117838 -0.3825 -8.36202e-07
0.00117939 -0.37875 -8.47353e-07 0.00118039 -0.375 -8.58627e-07 0.00118137 -0.37125 -8.70106e-07 0.00118233
-0.3675 -8.81697e-07 0.0011833 -0.36375 -8.93316e-07 0.00118427 -0.36 -9.05008e-07 0.00118521 -0.35625
-9.16791e-07 0.00118611 -0.3525 -9.27024e-07 0.00118698 -0.34875 -9.39128e-07 0.00118785 -0.345 -9.51264e-07
0.00118872 -0.34125 -9.63453e-07 0.00118954 -0.3375 -9.75704e-07 0.0011903 -0.33375 -9.88158e-07 0.001191
-0.33 -1.00075e-06 0.00119169 -0.32625 -1.01338e-06 0.00119239 -0.3225 -1.02605e-06 0.00119301 -0.31875
-1.03875e-06 0.00119353 -0.315 -1.05167e-06 0.00119394 -0.31125 -1.06474e-06 0.00119435 -0.3075 -1.07785e-06
0.00119477 -0.30375 -1.09094e-06 0.00119507 -0.3 -1.104e-06 0.00119521 -0.29625 -1.11415e-06 0.00119519
-0.2925 -1.12739e-06 0.00119494 -0.28875 -1.14049e-06 0.00119446 -0.285 -1.1535e-06 0.0011938 -0.28125
-1.16654e-06 0.00119315 -0.2775 -1.17617e-06 0.00119249 -0.27375 -1.18938e-06 0.00119151 -0.27 -1.20229e-06
0.00119018 -0.26625 -1.215e-06 0.00118861 -0.2625 -1.22774e-06 0.00118705 -0.25875 -1.2364e-06 0.00118549
-0.255 -1.24919e-06 0.00118345 -0.25125 -1.26148e-06 0.00118092 -0.2475 -1.27343e-06 0.00117806 -0.24375
-1.28541e-06 0.00117521 -0.24 -1.29785e-06 0.00117237 -0.23625 -1.30967e-06 0.00116889 -0.2325 -1.32071e-06
0.00116479 -0.22875 -1.33124e-06 0.00116027 -0.225 -1.34178e-06 0.00115576 -0.22125 -1.34661e-06 0.00115128
-0.2175 -1.35648e-06 0.00114594 -0.21375 -1.36504e-06 0.00113974 -0.21 -1.37283e-06 0.00113303 -0.20625
-1.38064e-06 0.00112637 -0.2025 -1.38195e-06 0.00111975 -0.19875 -1.38893e-06 0.00111193 -0.195 -1.39411e-06
0.00110291 -0.19125 -1.39836e-06 0.0010933 -0.1875 -1.40265e-06 0.00108379 -0.18375 -1.40744e-06 0.00107437
-0.18 -1.40974e-06 0.00106342 -0.17625 -1.40945e-06 0.00105097 -0.1725 -1.40815e-06 0.00103801 -0.16875
-1.40696e-06 0.00102523 -0.165 -1.40653e-06 0.00101262 -0.16125 -1.40252e-06 0.000998237 -0.1575 -1.39492e-06
0.000982108 -0.15375 -1.38654e-06 0.000965741 -0.15 -1.37841e-06 0.000949677 -0.14625 -1.37119e-06 0.000933907
-0.1425 -1.3582e-06 0.000916139 -0.13875 -1.33956e-06 0.000896435 -0.135 -1.3209e-06 0.000876996 -0.13125
-1.30275e-06 0.000858014 -0.1275 -1.27664e-06 0.000839477 -0.12375 -1.25327e-06 0.000818872 -0.12 -1.22475e-06
0.000796611 -0.11625 -1.1971e-06 0.000774993 -0.1125 -1.17028e-06 0.000753996 -0.10875 -1.13643e-06 0.0007336
-0.105 -1.10113e-06 0.000711178 -0.10125 -1.06035e-06 0.000687796 -0.0975 -1.02091e-06 0.000665208 -0.0937499
-9.82784e-07 0.000643384 -0.0899999 -9.46226e-07 0.000622296 -0.0862499 -9.02e-07 0.000599672 -0.0824999 -8.55895e-07
0.000576984 -0.0787499 -8.11462e-07 0.00055516 -0.0749999 -7.68637e-07 0.000534165 -0.0712499 -7.27521e-07 0.000513965
-0.0674999 -6.81655e-07 0.000493679 -0.0637499 -6.36474e-07 0.000474041 -0.0599999 -5.92943e-07 0.00045517 -0.0562499
-5.50998e-07 0.000437039 -0.0524999 -5.06974e-07 0.000419617 -0.0487498 -4.54685e-07 0.000404536 -0.0449998 -4.04003e-07
0.00038998 -0.0412498 -3.54876e-07 0.000375931 -0.0374998 -3.07252e-07 0.000362373 -0.0337498 -2.6109e-07 0.000349289
-0.0299998 -2.01244e-07 0.000340662 -0.0262498 -1.42508e-07 0.00033224 -0.0224998 -8.48562e-08 0.000324018 -0.0187499
-2.82631e-08 0.000315992 -0.0183683 -2.26088e-08 0.000315195 -0.0179867 -1.67969e-08 0.000314462 -0.017605 -1.08275e-08
0.000313793 -0.0172234 -4.69972e-09 0.000313188 -0.0169377 8.57272e-12 0.000312783 -0.0135501 5.68867e-08 0.0003084
-0.0101626 1.16567e-07 0.000305306 -0.00677502 1.75965e-07 0.000302241 -0.00338748 2.35084e-07 0.000299205 6.11904e-08
2.93928e-07 0.000296199 0.00375005 3.58682e-07 0.000292903 0.00750005 4.2292e-07 0.000289644 0.01125 4.86786e-07
0.000286419 0.015 5.50284e-07 0.000283229 0.01875 6.1342e-07 0.000280073 0.0225 6.84514e-07 0.000279032
0.02625 7.55414e-07 0.000277996 0.03 8.26361e-07 0.000276963 0.03375 8.97356e-07 0.000275934 0.0375
9.684e-07 0.000274909 0.04125 1.05194e-06 0.000274419 0.045 1.13522e-06 0.000273931 0.04875 1.21865e-06
0.000273443 0.0525 1.30224e-06 0.000272956 0.05625 1.38599e-06 0.000272471 0.06 1.48149e-06 0.000272272
0.06375 1.58142e-06 0.000272073 0.0675 1.68157e-06 0.000271875 0.07125 1.78197e-06 0.000271677 0.075
1.8826e-06 0.000271479 0.07875 2.00154e-06 0.000271432 0.0825 2.12025e-06 0.000271386 0.08625 2.23925e-06
0.000271339 0.09 2.35856e-06 0.000271292 0.09375 2.47816e-06 0.000271246 0.0975 2.61568e-06 0.000271251
[...]
POINT_DATA 19514
FIELD attributes 3
age 1 19514 float
0 7.3016e-05 0.000146036 0.000219059 0.000292086 0.000365117 0.000553999 0.000742881 0.000931764 0.00112066 0.00130959
0.00149856 0.00168752 0.00187649 0.00206547 0.00225449 0.00244354 0.00263259 0.00282164 0.00301071 0.00319982
0.00338896 0.00357811 0.00376725 0.00395642 0.00414562 0.00433487 0.00452411 0.00471336 0.00490263 0.00509194
0.00528129 0.00547069 0.00566013 0.0058496 0.00603907 0.00621824 0.00639746 0.00657673 0.00675602 0.00690684
0.00692283 0.00693882 0.00695481 0.00697081 0.0069868 0.00717639 0.00736604 0.00755573 0.00774545 0.00793518
0.0081249 0.00831468 0.00850452 0.00869438 0.00888425 0.00907412 0.00926404 0.00945403 0.00964405 0.00983407
0.0100241 0.0102142 0.0104043 0.0105945 0.0107847 0.0109749 0.0111651 0.0113555 0.0115458 0.0117362
0.0119266 0.012117 0.0123075 0.0124981 0.0126886 0.0128792 0.0130698 0.0132605 0.0134513 0.0136421
0.0138328 0.0140237 0.0142146 0.0144056 0.0145966 0.0147876 0.0149787 0.0151699 0.0153611 0.0155524
0.0157436 0.0159349 0.0161264 0.0163179 0.0165094 0.0167009 0.0168925 0.0170843 0.0172761 0.0174679
0.0176597 0.0178516 0.0180436 0.0182358 0.0184279 0.01862 0.0188122 0.0190046 0.0191971 0.0193896
0.019582 0.0197746 0.0199674 0.0201602 0.0203531 0.0205459 0.0207388 0.0209316 0.0211246 0.0213177
0.021511 0.0217042 0.0218975 0.0220909 0.0222844 0.0224782 0.0226719 0.0228656 0.0230595 0.0232535
0.0234477 0.023642 0.0238362 0.0240306 0.0242251 0.0244199 0.0246147 0.0248095 0.0250044 0.0251996
0.025395 0.0255904 0.0257858 0.0259814 0.0261772 0.0263733 0.0265693 0.0267654 0.0269617 0.0271582
0.027355 0.0275518 0.0277487 0.0279457 0.028143 0.0283407 0.0285383 0.028736 0.0289339 0.0291321
0.0293306 0.0295292 0.0297278 0.0299266 0.0301258 0.0303253 0.0305249 0.0307245 0.0309243 0.0311246
0.0313252 0.0315259 0.0317266 0.0319276 0.032129 0.0323309 0.0325328 0.0327347 0.032937 0.0331397
0.0333429 0.0335461 0.0337494 0.033953 0.0341571 0.0343618 0.0345664 0.0347711 0.0349762 0.0351818
0.035388 0.0355942 0.0358004 0.036007 0.0362142 0.036422 0.0366304 0.0368394 0.0370488 0.0372582
0.0374676 0.0376776 0.0378882 0.0380992 0.0383101 0.038521 0.0387325 0.0389445 0.0391569 0.0393692
0.0395815 0.0397942 0.0400073 0.0402207 0.040434 0.0406472 0.0408607 0.0410745 0.0412883 0.041502
0.0417155 0.0419291 0.0421426 0.042356 0.0425692 0.0427821 0.0429946 0.0432067 0.0434184 0.0436297
0.0438407 0.0440508 0.04426 0.0444687 0.0446769 0.0448848 0.0450911 0.045296 0.0455004 0.0457043
0.0459079 0.0461093 0.0463087 0.0465079 0.0467067 0.0469051 0.0471008 0.0472947 0.0474883 0.0476817
0.0478749 0.0480647 0.0482532 0.0484417 0.0486301 0.0488185 0.0490032 0.0491874 0.0493718 0.0495563
0.0497409 0.0499221 0.0501036 0.0502852 0.0504671 0.0506491 0.0508291 0.0510092 0.0511896 0.05137
0.0513884 0.0514068 0.0514252 0.0514435 0.0514572 0.05162 0.0517825 0.0519451 0.0521078 0.0522706
0.0524508 0.0526311 0.0528115 0.0529919 0.0531725 0.0533531 0.0535338 0.0537144 0.0538952 0.0540759
0.0542569 0.054438 0.054619 0.0548001 0.0549812 0.0551626 0.055344 0.0555254 0.0557068 0.0558883
0.05607 0.0562517 0.0564334 0.0566152 0.0567969 0.0569789 0.057161 0.057343 0.057525 0.057707
0.0578893 0.0580716 0.0582539 0.0584362 0.0586185 0.0588012 0.0589838 0.0591663 0.0593489 0.0595315
0.0597144 0.0598973 0.0600802 0.0602631 0.060446 0.0606292 0.0608124 0.0609956 0.0611788 0.061362
0.0615455 0.061729 0.0619125 0.062096 0.0622795 0.0624633 0.0626471 0.0628309 0.0630147 0.0631984
0.0633825 0.0635666 0.0637507 0.0639347 0.0641188 0.0643032 0.0644875 0.0646718 0.0648561 0.0650405
0.065225 0.0654096 0.0655942 0.0657787 0.0659633 0.0661481 0.0663329 0.0665177 0.0667025 0.0668872
0.0670722 0.0672574 0.0674425 0.0676277 0.0678128 0.067998 0.0681833 0.0683686 0.0685539 0.0687392
0.0689245 0.06911 0.0692954 0.0694809 0.0696663 0.0698518 0.0700374 0.0702229 0.0704085 0.070594
0.0707796 0.0709653 0.071151 0.0713366 0.0715223 0.071708 0.0718937 0.0720795 0.0722652 0.072451
0.0726367 0.0728225 0.0730083 0.0731941 0.0733799 0.0735658 0.0737516 0.0739375 0.0741233 0.0743092
0.074495 0.0746809 0.0748668 0.0750527 0.0752385 0.0754244 0.0756103 0.0757962 0.075982 0.0761679
0.0763538 0.0765396 0.0767255 0.0769113 0.0770972 0.077283 0.0774689 0.0776547 0.0778405 0.0780263
0.0782121 0.0783979 0.0785837 0.0787695 0.0789552 0.079141 0.0793267 0.0795125 0.0796982 0.0798839
0.0800697 0.0802554 0.0804411 0.0806268 0.0808126 0.0809983 0.081184 0.0813697 0.0815554 0.0817412
0.0819269 0.0821126 0.0822984 0.0824841 0.0826698 0.0828556 0.0830413 0.0832271 0.0834128 0.0835986
0.0837844 0.0839702 0.0841561 0.0843419 0.0845277 0.0847136 0.0848994 0.0850853 0.0852712 0.0854571
0.085643 0.085829 0.0860149 0.0862008 0.0863868 0.0865728 0.0867588 0.0869448 0.0871308 0.0873168
0.0875029 0.087689 0.087875 0.0880611 0.0882472 0.0884333 0.0886195 0.0888056 0.0889917 0.0891779
0.0893641 0.0895502 0.0897364 0.0899226 0.0901088 0.0902951 0.0904813 0.0906676 0.0908538 0.09104
0.0912263 0.0914126 0.0915989 0.0917852 0.0919715 0.0921579 0.0923442 0.0925305 0.0927169 0.0929032
0.0930896 0.093276 0.0934623 0.0936487 0.0938351 0.0940215 0.0942079 0.0943943 0.0945808 0.0947672
0.0949536 0.0951401 0.0953265 0.095513 0.0956994 0.0958859 0.0960724 0.0962589 0.0964454 0.0966319
0.0968184 0.097005 0.0971915 0.0973781 0.0975647 0.0977513 0.0979379 0.0981245 0.0983112 0.0984978
0.0986844 0.0988711 0.0990578 0.0992445 0.0994312 0.0996179 0.0998047 0.0999914 0.100178 0.100365
0.100552 0.100738 0.100925 0.101112 0.101299 0.101485 0.101672 0.101859 0.102046 0.102233
0.10242 0.102607 0.102794 0.102981 0.103168 0.103355 0.103542 0.10373 0.103917 0.104104
0.104292 0.104479 0.104667 0.104855 0.105043 0.105231 0.105419 0.105607 0.105795 0.105984
0.106172 0.106361 0.106549 0.106738 0.106927 0.107116 0.107305 0.107495 0.107684 0.107873
0.108063 0.108253 0.108443 0.108632 0.108822 0.109012 0.109203 0.109393 0.109583 0.109773
0.109951 0.110128 0.110306 0.110484 0.110691 0.110698 0.110705 0.110712 0.110719 0.110726
0.110917 0.111107 0.111298 0.111489 0.11168 0.11187 0.112061 0.112252 0.112442 0.112633
0.112824 0.113015 0.113206 0.113396 0.113587 0.113778 0.113969 0.11416 0.114351 0.114541
0.114732 0.114923 0.115114 0.115305 0.115496 0.115686 0.115877 0.116068 0.116259 0.11645
0.11664 0.116831 0.117022 0.117213 0.117403 0.117594 0.117785 0.117976 0.118166 0.118357
0.118548 0.118738 0.118929 0.11912 0.11931 0.119501 0.119692 0.119882 0.120073 0.120263
0.120454 0.120644 0.120835 0.121026 0.121216 0.121407 0.121597 0.121788 0.121978 0.122168
0.122359 0.122549 0.12274 0.12293 0.123121 0.123311 0.123501 0.123692 0.123882 0.124072
0.124226 0.12438 0.124534 0.124688 0.124864 0.124896 0.124928 0.12496 0.124992 0.125024
0.125214 0.125404 0.125595 0.125785 0.125975 0.126165 0.126355 0.126546 0.126736 0.126926
0.127116 0.127306 0.127496 0.127686 0.127877 0.128067 0.128257 0.128447 0.128637 0.128827
0.129017 0.129207 0.129397 0.129587 0.129776 0.129966 0.130156 0.130346 0.130536 0.130726
0.130916 0.131105 0.131295 0.131485 0.131675 0.131864 0.132054 0.132244 0.132433 0.132623
0.132813 0.133002 0.133192 0.133381 0.133571 0.13376 0.13395 0.134139 0.134329 0.134518
0.134708 0.134897 0.135086 0.135276 0.135465 0.135654 0.135844 0.136033 0.136222 0.136411
0.136601 0.13679 0.136979 0.137168 0.137357 0.137547 0.137736 0.137925 0.138114 0.138303
0.138492 0.138681 0.13887 0.139059 0.139248 0.139437 0.139626 0.139815 0.140004 0.140192
0.140381 0.14057 0.140759 0.140948 0.141137 0.141325 0.141514 0.141703 0.141891 0.14208
0.142269 0.142458 0.142646 0.142835 0.143023 0.143212 0.143401 0.143589 0.143778 0.143966
0.144155 0.144343 0.144532 0.14472 0.144909 0.145097 0.145286 0.145474 0.145663 0.145851
0.14604 0.146228 0.146416 0.146605 0.146793 0.146981 0.14717 0.147358 0.147546 0.147735
0.147923 0.148111 0.148299 0.148488 0.148676 0.148864 0.149052 0.149241 0.149429 0.149617
0.149805 0.149993 0.150181 0.15037 0.150558 0.150746 0.150934 0.151122 0.15131 0.151498
0.151874 0.15225 0.152626 0.153002 0.153378 0.154129 0.15488 0.15563 0.156381 0.157131
0.158632 0.160132 0.161632 0.163133 0.164633 0.166133 0.167633 0.169133 0.170633 0.172134
0.175123 0.178114 0.181103 0.184093 0.187134 0.193134 0.199134 0.205134 0.211134 0.217135
0.223135 0.229135 0.235135 0.241135 0.247135 0.253135 0.259135 0.265135 0.271135 0.277135
0.283135 0.289135 0.295135 0.301135 0.307135 0.313135 0.319135 0.325135 0.331135 0.337135
0.343135 0.349135 0.355135 0.361135 0.367135 0.373135 0.379135 0.385135 0.391135 0.397135
0.403135 0.403168 0 7.36902e-05 0.000147384 0.000221082 0.000294784 0.00036849 0.000559122 0.000749787
0.000940486 0.00113122 0.00132199 0.00151279 0.00170362 0.00189449 0.0020854 0.00227634 0.00246732 0.00265834
0.00284939 0.00304048 0.00323161 0.0032448 0.00325798 0.00327117 0.00328435 0.00329746 0.00347547 0.00365352
0.0038316 0.00400972 0.00418787 0.00437924 0.00457065 0.00476211 0.00495361 0.00514516 0.00533675 0.00552838
0.00572006 0.00591179 0.00610356 0.00629539 0.00648726 0.00667918 0.00687115 0.00706317 0.00725524 0.00744737
0.00763955 0.00783178 0.00802407 0.00821641 0.00840881 0.00860126 0.00879378 0.00898635 0.00917898 0.00937167
0.00956442 0.00975724 0.00995012 0.0101431 0.0103361 0.0105291 0.0107223 0.0109155 0.0111088 0.0113021
0.0114956 0.011689 0.0118826 0.0120763 0.01227 0.0124638 0.0126577 0.0128516 0.0130456 0.0132398
0.013434 0.0136282 0.0138226 0.0140171 0.0142116 0.0144063 0.014601 0.0147958 0.0149907 0.0151858
0.0153809 0.0155761 0.0157714 0.0159668 0.0161624 0.016358 0.0165537 0.0167496 0.0169456 0.0171416
0.0173378 0.0175342 0.0177306 0.0179271 0.0181238 0.0183206 0.0185176 0.0187147 0.0189119 0.0191092
0.0193067 0.0195043 0.0197021 0.0199 0.020098 0.0202963 0.0204946 0.0206932 0.0208918 0.0210907
0.0212897 0.0214889 0.0216882 0.0218878 0.0220875 0.0222874 0.0224875 0.0226878 0.0228882 0.0230889
0.0232898 0.0234908 0.0236921 0.0238936 0.0240953 0.0242973 0.0244994 0.0247018 0.0249045 0.0251074
0.0253105 0.0255139 0.0257175 0.0259214 0.0261255 0.02633 0.0265347 0.0267397 0.026945 0.0271505
0.0273564 0.0275626 0.0277692 0.027976 0.0281832 0.0283907 0.0285985 0.0288067 0.0290153 0.0292242
0.0294335 0.0296432 0.0298533 0.0300638 0.0302747 0.0304861 0.0306978 0.03091 0.0311227 0.0313358
0.0315494 0.0317635 0.031978 0.0321931 0.0324087 0.0326248 0.0328415 0.0330588 0.0332766 0.0334949
0.0337139 0.0339335 0.0341538 0.0343746 0.0345961 0.0348184 0.0350413 0.0352649 0.0354892 0.0357143
0.0359401 0.0361667 0.0363941 0.0366223 0.0368514 0.0370814 0.0373122 0.037544 0.0377766 0.0380101
0.0382446 0.0384801 0.0387166 0.0389542 0.0391928 0.0394325 0.0396734 0.0399153 0.0401583 0.0404025
0.0406478 0.0408944 0.0411422 0.0413913 0.0416416 0.0418933 0.0421462 0.0424006 0.042656 0.0429127
0.0431706 0.0434297 0.0436905 0.0439526 0.0442158 0.0444801 0.0447455 0.0450129 0.0452808 0.0455492
0.0458181 0.0460875 0.0463594 0.0464875 0.0466155 0.0467435 0.0468714 0.0469515 0.0471047 0.0472578
0.0474107 0.0475634 0.0477171 0.0479879 0.048257 0.0485243 0.0487896 0.049058 0.0492045 0.0493498
0.0494939 0.0496369 0.0497471 0.0498673 0.0499867 0.0501053 0.0502232 0.0503412 0.0505886 0.0508309
0.0510683 0.0513009 0.0515301 0.0515457 0.0515613 0.0515768 0.0515923 0.0516078 0.0518143 0.0520163
0.0522138 0.0524071 0.0525944 0.0527059 0.0528156 0.0529238 0.0530305 0.0531646 0.0532388 0.0533125
0.0533854 0.0534578 0.053529 0.0537034 0.0538742 0.0540415 0.0542055 0.0543632 0.0545017 0.0546388
0.0547743 0.0549083 0.0551295 0.0551443 0.0551591 0.0551739 0.0551887 0.0552056 0.055337 0.0554678
0.055598 0.0557277 0.0558561 0.0559991 0.0561422 0.0562854 0.0564288 0.0565721 0.0567154 0.0568591
0.0570031 0.0571474 0.0572921 0.0574372 0.0575827 0.0577285 0.0578746 0.0580212 0.058168 0.0583152
0.0584627 0.0586105 0.0587586 0.0588639 0.0589693 0.0590749 0.0591806 0.0592467 0.0592981 0.0593496
0.0594012 0.0594527 0.0595043 0.0596543 0.0598046 0.0599552 0.0601061 0.0602572 0.0604087 0.0605605
0.0607126 0.060865 0.0610177 0.0611708 0.0613241 0.0614778 0.0616317 0.0617861 0.0619407 0.0620957
0.062251 0.0624067 0.0625627 0.062719 0.0628757 0.0630328 0.0631902 0.0633479 0.063506 0.0636644
0.0638232 0.0639823 0.0641418 0.0643016 0.0644617 0.0646222 0.064783 0.0649442 0.0651057 0.0652675
0.0654296 0.0655921 0.0657548 0.0659179 0.0660813 0.066245 0.066409 0.0665733 0.0667379 0.0669028
0.0670679 0.0672333 0.0673991 0.0675651 0.0677313 0.0678978 0.0680645 0.0682315 0.0683988 0.0685663
0.068734 0.068902 0.0690702 0.0692387 0.0694073 0.0695761 0.0697452 0.0699145 0.0700839 0.0702536
0.0704235 0.0705935 0.0707637 0.0709341 0.0711047 0.0712754 0.0714463 0.0716174 0.0717886 0.07196
0.0721316 0.0723033 0.0724751 0.072647 0.0728191 0.0729913 0.0731636 0.0733361 0.0735086 0.0736813
0.0738541 0.0740269 0.0741999 0.0742619 0.0743239 0.0743858 0.0744478 0.0745307 0.0746377 0.0747447
0.0748517 0.0749588 0.0750659 0.0752393 0.0754128 0.0755863 0.0757598 0.0759334 0.076107 0.0762806
0.0764542 0.0766279 0.0768015 0.0769752 0.0771489 0.0773225 0.0774961 0.0776697 0.0778433 0.0780169
0.0781904 0.0783638 0.0785372 0.0785458 0.0785544 0.078563 0.0785716 0.0785803 0.0787451 0.0789098
0.0790745 0.0792391 0.0794037 0.0795768 0.0797499 0.0799229 0.0800959 0.0802689 0.0804418 0.0806146
0.0807875 0.0809604 0.0811332 0.081306 0.0814788 0.0816516 0.0818244 0.0819973 0.0821701 0.082343
0.082516 0.0826891 0.0828621 0.0830353 0.0832085 0.0833817 0.0835551 0.0837285 0.0838963 0.0840642
0.0842321 0.0844002 0.0845971 0.0846004 0.0846038 0.0846071 0.0846105 0.0846139 0.0847846 0.0849553
0.0851261 0.0852971 0.0854682 0.0856427 0.0858173 0.0859921 0.086167 0.086342 0.0864207 0.0864995
0.0865783 0.0866571 0.0866615 0.0867728 0.0868842 0.0869956 0.087107 0.0872185 0.0873941 0.0875699
0.0877457 0.0879217 0.0880977 0.0882739 0.0884501 0.0886265 0.0888029 0.0889795 0.0891561 0.0893329
0.0895098 0.0896868 0.0898638 0.090041 0.0902183 0.0903956 0.090573 0.0907505 0.0909281 0.0911059
0.0912837 0.0914616 0.0916395 0.0918176 0.0919957 0.0921739 0.0923522 0.0925306 0.092709 0.0928876
0.0930662 0.0932449 0.0934236 0.0936025 0.0937814 0.0939604 0.0941394 0.0943185 0.0944977 0.094677
0.0948564 0.0950358 0.0952153 0.0953949 0.0955745 0.0957542 0.095934 0.0961139 0.0962939 0.096474
0.0966541 0.0968344 0.0970148 0.0971953 0.0973759 0.0975567 0.0977375 0.0979185 0.0981002 0.098282
0.0984639 0.098646 0.0988282 0.0990097 0.0991912 0.0993727 0.0995543 0.099736 0.0999179 0.1001
0.100282 0.100464 0.100646 0.100828 0.10101 0.101193 0.101375 0.101558 0.101741 0.101925
0.102109 0.102293 0.102477 0.102662 0.102848 0.103034 0.10322 0.103407 0.103596 0.103785
0.103975 0.104166 0.104357 0.104445 0.104534 0.104622 0.104711 0.1048 0.104906 0.105012
0.105118 0.105225 0.105332 0.105531 0.105731 0.105933 0.106135 0.10634 0.106545 0.106752
0.106961 0.10717 0.107382 0.107596 0.107811 0.108029 0.108248 0.108469 0.108692 0.108916
0.109142 0.10937 0.109599 0.109831 0.110065 0.110301 0.110539 0.110778 0.111019 0.111262
0.111506 0.111753 0.112001 0.112251 0.112502 0.112756 0.11301 0.113267 0.113525 0.113784
0.114045 0.114307 0.11457 0.114835 0.115101 0.115368 0.115636 0.115906 0.116176 0.116448
0.11672 0.116994 0.117268 0.117543 0.117819 0.118095 0.118372 0.118649 0.118928 0.119207
0.119486 0.119766 0.120047 0.120215 0.120384 0.120553 0.120721 0.120861 0.12098 0.121098
0.121216 0.121334 0.121453 0.121735 0.122017 0.1223 0.122582 0.122865 0.123148 0.123431
0.123713 0.123996 0.124279 0.124416 0.124553 0.12469 0.124826 0.12496 0.125106 0.125253
0.1254 0.125546 0.125693 0.125975 0.126258 0.12654 0.126821 0.127103 0.127384 0.127664
0.127945 0.128224 0.128504 0.128783 0.129063 0.129341 0.12962 0.129898 0.130176 0.130453
0.130729 0.131005 0.131281 0.131557 0.131833 0.132108 0.132383 0.132657 0.132931 0.133204
0.133477 0.13375 0.134022 0.134294 0.134566 0.134838 0.135109 0.13538 0.135651 0.135921
0.13619 0.13646 0.136729 0.136998 0.137266 0.137535 0.137803 0.138071 0.138339 0.138606
0.138873 0.13914 0.139406 0.139566 0.139727 0.139886 0.140046 0.140217 0.14032 0.140424
0.140527 0.14063 0.140733 0.140998 0.141262 0.141525 0.141789 0.142052 0.142314 0.142576
0.142838 0.143099 0.14336 0.14362 0.143881 0.144141 0.1444 0.144659 0.144917 0.145176
0.145434 0.145691 0.145948 0.146204 0.146461 0.146718 0.146974 0.147229 0.147484 0.147738
0.147993 0.148247 0.148501 0.148753 0.149007 0.14926 0.149513 0.149766 0.150017 0.150269
0.15052 0.150772 0.151023 0.151272 0.151523 0.151774 0.152024 0.152274 0.152522 0.152772
0.153021 0.15327 0.153518 0.153765 0.154014 0.154262 0.15451 0.154758 0.155004 0.155251
0.155498 0.155745 0.155991 0.156236 0.156483 0.156729 0.156975 0.157221 0.157465 0.15771
0.157955 0.1582 0.158445 0.158688 0.158932 0.159177 0.159421 0.159665 0.159907 0.16015
0.160394 0.160637 0.16088 0.161121 0.161363 0.161606 0.161847 0.162089 0.162329 0.16257
0.162811 0.163052 0.163292 0.163532 0.163772 0.164011 0.164251 0.16449 0.164728 0.164966
0.165205 0.165443 0.16568 0.165874 0.166067 0.166261 0.166454 0.166587 0.166642 0.166697
0.166753 0.166808 0.166863 0.167331 0.167796 0.168247 0.168684 0.169108 0.169914 0.170719
0.171519 0.172316 0.173105 0.174634 0.176156 0.177677 0.179198 0.180719 0.182228 0.18374
0.185252 0.186762 0.188272 0.191262 0.194254 0.197245 0.200235 0.203319 0.209323 0.215329
0.221334 0.227339 0.233344 0.239344 0.245348 0.251351 0.257353 0.263356 0.269357 0.275359
0.281362 0.287364 0.293366 0.299366 0.305368 0.31137 0.317372 0.323374 0.329374 0.335376
0.341378 0.347379 0.353381 0.359381 0.365382 0.371384 0.377385 0.383386 0.389387 0.395388
0.401389 0.40739 0.413391 0.419391 0.421774 0 7.36661e-05 0.000147337 0.000221012 0.000294693
0.000368377 0.000558954 0.000749563 0.000940205 0.00113088 0.00132159 0.00151233 0.00170311 0.00189392 0.00208476
0.00227564 0.00246655 0.00265751 0.00284849 0.00303952 0.00323058 0.00325823 0.00328587 0.00331352 0.00334117
0.00336842 0.00353198 0.00369556 0.00385918 0.00402282 0.0041865 0.00437779 0.00456913 0.00476052 0.00495194
0.00514341 0.00533492 0.00552647 0.00571807 0.00590971 0.00610141 0.00629314 0.00648493 0.00667676 0.00686864
0.00706057 0.00725255 0.00744459 0.00763667 0.00782881 0.00802099 0.00821324 0.00840553 0.00859789 0.0087903
0.00898276 0.00917529 0.00936787 0.00956051 0.00975321 0.00994598 0.0101388 0.0103317 0.0105246 0.0107177
0.0109108 0.0111039 0.0112971 0.0114904 0.0116838 0.0118772 0.0120707 0.0122643 0.0124579 0.0126517
0.0128455 0.0130394 0.0132333 0.0134274 0.0136215 0.0138157 0.01401 0.0142044 0.0143989 0.0145934
0.0147881 0.0149828 0.0151777 0.0153726 0.0155676 0.0157628 0.015958 0.0161533 0.0163487 0.0165443
0.0167399 0.0169357 0.0171315 0.0173275 0.0175236 0.0177198 0.0179161 0.0181126 0.0183092 0.0185059
0.0187027 0.0188996 0.0190967 0.019294 0.0194913 0.0196888 0.0198864 0.0200842 0.0202822 0.0204802
0.0206785 0.0208769 0.0210754 0.0212741 0.021473 0.021672 0.0218713 0.0220706 0.0222702 0.02247
0.0226699 0.02287 0.0230703 0.0232709 0.0234716 0.0236725 0.0238736 0.024075 0.0242765 0.0244783
0.0246803 0.0248825 0.025085 0.0252877 0.0254907 0.0256939 0.0258974 0.0261011 0.0263051 0.0265094
0.026714 0.0269188 0.027124 0.0273294 0.0275352 0.0277413 0.0279477 0.0281544 0.0283614 0.0285689
0.0287766 0.0289847 0.0291933 0.0294021 0.0296114 0.0298211 0.0298554 0.0298896 0.0299239 0.0299582
0.0299919 0.0301681 0.0303447 0.0305215 0.0306987 0.0308762 0.0310885 0.0313012 0.0315145 0.0317283
0.0319426 0.0321575 0.0323729 0.0325888 0.0328054 0.0330226 0.0332403 0.0334587 0.0336777 0.0338975
0.0341179 0.034339 0.0345609 0.0347836 0.035007 0.0352313 0.0354563 0.0356823 0.0359091 0.0361369
0.0363656 0.0365953 0.0368261 0.037058 0.037291 0.0375251 0.0377603 0.0379968 0.0382346 0.0384738
0.0387143 0.0389562 0.0391997 0.0394449 0.0396917 0.0399401 0.0401902 0.0404422 0.0406962 0.0409522
0.0412103 0.0414704 0.0417331 0.0419983 0.0422661 0.0425365 0.0428102 0.0430869 0.0433667 0.0436499
0.0439368 0.0442265 0.0445203 0.0448183 0.0451206 0.0454283 0.0457383 0.0460528 0.0463719 0.0466956