# vtk DataFile Version 2.0
tracks
ASCII
DATASET POLYDATA
POINTS 19472 float
-1.001 1e-07 0.0011 -0.99955 9.54614e-08 0.00110002 -0.9981 9.09098e-08 0.00110004 -0.99665 8.63451e-08
0.00110007 -0.9952 8.17674e-08 0.0011001 -0.99375 7.71766e-08 0.00110014 -0.99 6.52552e-08 0.00110024
-0.98625 5.33446e-08 0.00110034 -0.9825 4.14308e-08 0.00110043 -0.97875 2.94431e-08 0.00110054 -0.975
1.73135e-08 0.00110067 -0.973942 1.38508e-08 0.00110072 -0.972884 1.03887e-08 0.00110076 -0.971826 6.92627e-09
0.0011008 -0.970769 3.46352e-09 0.00110085 -0.969711 1.63539e-17 0.00110089 -0.967018 -8.81379e-09 0.001101
-0.964326 -1.76297e-08 0.00110111 -0.961634 -2.64848e-08 0.00110122 -0.958942 -3.54164e-08 0.00110133 -0.95625
-4.44246e-08 0.00110145 -0.9525 -5.7071e-08 0.00110162 -0.94875 -6.97303e-08 0.00110179 -0.945 -8.23941e-08
0.00110196 -0.94125 -9.51387e-08 0.00110213 -0.9375 -1.08036e-07 0.00110231 -0.93375 -1.21078e-07 0.00110248
-0.93 -1.34134e-07 0.00110266 -0.92625 -1.47194e-07 0.00110284 -0.9225 -1.6034e-07 0.00110302 -0.91875
-1.73645e-07 0.0011032 -0.915 -1.87096e-07 0.00110339 -0.91125 -2.00567e-07 0.00110357 -0.9075 -2.14044e-07
0.00110376 -0.90375 -2.27609e-07 0.00110395 -0.9 -2.41342e-07 0.00110414 -0.89625 -2.55224e-07 0.00110433
-0.8925 -2.693e-07 0.00110453 -0.88875 -2.83549e-07 0.00110473 -0.885 -2.97891e-07 0.00110493 -0.88125
-3.12238e-07 0.00110514 -0.8775 -3.26527e-07 0.00110534 -0.87375 -3.41059e-07 0.00110555 -0.87 -3.55768e-07
0.00110577 -0.86625 -3.70572e-07 0.00110598 -0.8625 -3.85382e-07 0.0011062 -0.85875 -4.00116e-07 0.00110641
-0.855 -4.15119e-07 0.00110664 -0.85125 -4.30304e-07 0.00110686 -0.8475 -4.45589e-07 0.00110709 -0.84375
-4.60881e-07 0.00110732 -0.84 -4.76145e-07 0.00110755 -0.83625 -4.91638e-07 0.00110779 -0.8325 -5.07321e-07
0.00110803 -0.82875 -5.23109e-07 0.00110828 -0.825 -5.38903e-07 0.00110852 -0.82125 -5.54581e-07 0.00110877
-0.8175 -5.70588e-07 0.00110902 -0.81375 -5.86795e-07 0.00110928 -0.81 -6.03111e-07 0.00110954 -0.80625
-6.19435e-07 0.0011098 -0.8025 -6.35619e-07 0.00111006 -0.79875 -6.52166e-07 0.00111033 -0.795 -6.68922e-07
0.00111061 -0.79125 -6.85794e-07 0.00111088 -0.7875 -7.02675e-07 0.00111116 -0.78375 -7.19518e-07 0.00111144
-0.78 -7.3663e-07 0.00111173 -0.77625 -7.53956e-07 0.00111203 -0.7725 -7.71402e-07 0.00111233 -0.76875
-7.88857e-07 0.00111263 -0.765 -8.06272e-07 0.00111292 -0.76125 -8.23965e-07 0.00111323 -0.7575 -8.41874e-07
0.00111355 -0.75375 -8.59906e-07 0.00111387 -0.75 -8.77948e-07 0.00111419 -0.74625 -8.95756e-07 0.00111451
-0.7425 -9.14044e-07 0.00111484 -0.73875 -9.32556e-07 0.00111518 -0.735 -9.51193e-07 0.00111552 -0.73125
-9.69842e-07 0.00111587 -0.7275 -9.88216e-07 0.00111621 -0.72375 -1.00713e-06 0.00111657 -0.72 -1.02627e-06
0.00111693 -0.71625 -1.04554e-06 0.0011173 -0.7125 -1.06483e-06 0.00111767 -0.70875 -1.0838e-06 0.00111804
-0.705 -1.10336e-06 0.00111842 -0.70125 -1.12317e-06 0.00111881 -0.6975 -1.14311e-06 0.00111921 -0.69375
-1.16307e-06 0.00111961 -0.69 -1.18299e-06 0.00112 -0.68625 -1.20324e-06 0.00112041 -0.6825 -1.22375e-06
0.00112083 -0.67875 -1.2444e-06 0.00112126 -0.675 -1.26507e-06 0.00112169 -0.67125 -1.2857e-06 0.00112211
-0.6675 -1.30668e-06 0.00112255 -0.66375 -1.32792e-06 0.00112301 -0.66 -1.34932e-06 0.00112347 -0.65625
-1.37074e-06 0.00112393 -0.6525 -1.39165e-06 0.00112438 -0.64875 -1.4134e-06 0.00112486 -0.645 -1.43542e-06
0.00112534 -0.64125 -1.45761e-06 0.00112584 -0.6375 -1.47981e-06 0.00112633 -0.63375 -1.50198e-06 0.00112683
-0.63 -1.52453e-06 0.00112734 -0.62625 -1.54737e-06 0.00112786 -0.6225 -1.57039e-06 0.00112839 -0.61875
-1.59343e-06 0.00112892 -0.615 -1.61643e-06 0.00112945 -0.61125 -1.63984e-06 0.00113 -0.6075 -1.66355e-06
0.00113056 -0.60375 -1.68744e-06 0.00113113 -0.6 -1.71136e-06 0.0011317 -0.59625 -1.73524e-06 0.00113227
-0.5925 -1.75928e-06 0.00113285 -0.58875 -1.78333e-06 0.00113342 -0.585 -1.80758e-06 0.001134 -0.58125
-1.83214e-06 0.0011346 -0.5775 -1.85606e-06 0.00113521 -0.57375 -1.88104e-06 0.00113583 -0.57 -1.90605e-06
0.00113644 -0.56625 -1.93126e-06 0.00113707 -0.5625 -1.9568e-06 0.00113771 -0.55875 -1.98155e-06 0.00113837
-0.555 -2.00755e-06 0.00113903 -0.55125 -2.03357e-06 0.00113969 -0.5475 -2.05981e-06 0.00114036 -0.54375
-2.08639e-06 0.00114105 -0.54 -2.11328e-06 0.00114176 -0.53625 -2.14036e-06 0.00114247 -0.5325 -2.16747e-06
0.00114317 -0.52875 -2.19481e-06 0.00114389 -0.525 -2.2225e-06 0.00114463 -0.52125 -2.24904e-06 0.00114539
-0.5175 -2.27727e-06 0.00114615 -0.51375 -2.30554e-06 0.00114691 -0.51 -2.33406e-06 0.00114768 -0.50625
-2.36295e-06 0.00114847 -0.5025 -2.39046e-06 0.00114928 -0.49875 -2.41994e-06 0.00115009 -0.495 -2.44947e-06
0.0011509 -0.49125 -2.47927e-06 0.00115172 -0.4875 -2.50946e-06 0.00115256 -0.48375 -2.54008e-06 0.00115342
-0.48 -2.57094e-06 0.00115428 -0.47625 -2.60185e-06 0.00115514 -0.4725 -2.63305e-06 0.00115601 -0.46875
-2.66468e-06 0.0011569 -0.465 -2.69677e-06 0.00115781 -0.46125 -2.72913e-06 0.00115872 -0.4575 -2.76156e-06
0.00115963 -0.45375 -2.79428e-06 0.00116055 -0.45 -2.82743e-06 0.00116149 -0.44625 -2.8611e-06 0.00116244
-0.4425 -2.89507e-06 0.00116339 -0.43875 -2.9291e-06 0.00116435 -0.435 -2.96345e-06 0.00116531 -0.43125
-2.99825e-06 0.00116629 -0.4275 -3.03012e-06 0.00116728 -0.42375 -3.06582e-06 0.00116826 -0.42 -3.10159e-06
0.00116925 -0.41625 -3.1377e-06 0.00117025 -0.4125 -3.1743e-06 0.00117125 -0.40875 -3.20739e-06 0.00117226
-0.405 -3.24501e-06 0.00117327 -0.40125 -3.28272e-06 0.00117427 -0.3975 -3.32081e-06 0.00117528 -0.39375
-3.35942e-06 0.00117629 -0.39 -3.39879e-06 0.0011773 -0.38625 -3.43858e-06 0.0011783 -0.3825 -3.47847e-06
0.00117931 -0.37875 -3.51876e-06 0.0011803 -0.375 -3.55962e-06 0.00118128 -0.37125 -3.60137e-06 0.00118225
-0.3675 -3.64357e-06 0.00118321 -0.36375 -3.68589e-06 0.00118418 -0.36 -3.72864e-06 0.00118512 -0.35625
-3.77197e-06 0.00118602 -0.3525 -3.80911e-06 0.00118689 -0.34875 -3.85396e-06 0.00118776 -0.345 -3.89893e-06
0.00118863 -0.34125 -3.94435e-06 0.00118945 -0.3375 -3.99039e-06 0.00119021 -0.33375 -4.03759e-06 0.0011909
-0.33 -4.08537e-06 0.00119159 -0.32625 -4.13328e-06 0.00119229 -0.3225 -4.18169e-06 0.00119291 -0.31875
-4.23074e-06 0.00119342 -0.315 -4.28115e-06 0.00119383 -0.31125 -4.33221e-06 0.00119425 -0.3075 -4.38341e-06
0.00119466 -0.30375 -4.43512e-06 0.00119496 -0.3 -4.48747e-06 0.00119509 -0.29625 -4.52877e-06 0.00119508
-0.2925 -4.58384e-06 0.00119482 -0.28875 -4.63954e-06 0.00119434 -0.285 -4.69574e-06 0.00119368 -0.28125
-4.75208e-06 0.00119302 -0.2775 -4.7945e-06 0.00119237 -0.27375 -4.85331e-06 0.00119138 -0.27 -4.91274e-06
0.00119005 -0.26625 -4.97265e-06 0.00118848 -0.2625 -5.03269e-06 0.00118691 -0.25875 -5.07599e-06 0.00118535
-0.255 -5.13875e-06 0.00118331 -0.25125 -5.20208e-06 0.00118078 -0.2475 -5.26582e-06 0.00117792 -0.24375
-5.32968e-06 0.00117506 -0.24 -5.39545e-06 0.00117222 -0.23625 -5.46232e-06 0.00116874 -0.2325 -5.52958e-06
0.00116463 -0.22875 -5.59712e-06 0.00116011 -0.225 -5.66475e-06 0.0011556 -0.22125 -5.70823e-06 0.00115112
-0.2175 -5.77849e-06 0.00114577 -0.21375 -5.84881e-06 0.00113957 -0.21 -5.91917e-06 0.00113286 -0.20625
-5.98956e-06 0.00112619 -0.2025 -6.0316e-06 0.00111957 -0.19875 -6.10586e-06 0.00111175 -0.195 -6.17978e-06
0.00110272 -0.19125 -6.25348e-06 0.00109311 -0.1875 -6.32714e-06 0.00108359 -0.18375 -6.40276e-06 0.00107417
-0.18 -6.47786e-06 0.00106322 -0.17625 -6.55188e-06 0.00105077 -0.1725 -6.62536e-06 0.00103781 -0.16875
-6.69872e-06 0.00102503 -0.165 -6.77501e-06 0.00101242 -0.16125 -6.84973e-06 0.000998034 -0.1575 -6.92261e-06
0.000981906 -0.15375 -6.99485e-06 0.00096554 -0.15 -7.06692e-06 0.000949478 -0.14625 -7.14222e-06 0.000933704
-0.1425 -7.2138e-06 0.00091594 -0.13875 -7.28176e-06 0.00089624 -0.135 -7.34929e-06 0.000876805 -0.13125
-7.41668e-06 0.000857829 -0.1275 -7.4358e-06 0.000839287 -0.12375 -7.50187e-06 0.000818691 -0.12 -7.56472e-06
0.000796438 -0.11625 -7.62755e-06 0.000774827 -0.1125 -7.69038e-06 0.000753839 -0.10875 -7.70168e-06 0.000733439
-0.105 -7.75968e-06 0.000711028 -0.10125 -7.81364e-06 0.000687657 -0.0975 -7.86787e-06 0.000665079 -0.0937499
-7.92238e-06 0.000643267 -0.0899999 -7.97959e-06 0.000622173 -0.0862499 -8.03168e-06 0.000599563 -0.0824999 -8.08262e-06
0.00057689 -0.0787499 -8.13402e-06 0.000555079 -0.0749999 -8.18586e-06 0.000534099 -0.0712499 -8.23978e-06 0.000513892
-0.0674999 -8.29245e-06 0.000493621 -0.0637499 -8.34559e-06 0.000473998 -0.0599999 -8.39916e-06 0.000455143 -0.0562499
-8.45316e-06 0.000437027 -0.0524999 -8.45218e-06 0.000419598 -0.0487498 -8.49961e-06 0.000404526 -0.0449998 -8.54757e-06
0.000389978 -0.0412498 -8.59605e-06 0.000375938 -0.0374998 -8.64504e-06 0.000362389 -0.0337498 -8.69468e-06 0.000349299
-0.0299998 -8.73645e-06 0.000340671 -0.0262498 -8.77873e-06 0.000332249 -0.0224998 -8.8215e-06 0.000324026 -0.0187499
-8.86478e-06 0.000316 -0.0149999 -8.90747e-06 0.000308162 -0.0112499 -8.94826e-06 0.000304735 -0.0074999 -8.98937e-06
0.000301344 -0.00374991 -9.03078e-06 0.00029799 6.11927e-08 -9.07251e-06 0.000294671 0.00375005 -9.06613e-06 0.000291391
0.00750005 -9.10126e-06 0.000288161 0.01125 -9.13663e-06 0.000284965 0.015 -9.17225e-06 0.000281803 0.01875
-9.20812e-06 0.000278675 0.0225 -9.2059e-06 0.000277639 0.02625 -9.24087e-06 0.000276614 0.03 -9.27599e-06
0.000275591 0.03375 -9.31127e-06 0.000274573 0.0375 -9.34671e-06 0.000273558 0.04125 -9.34501e-06 0.000273071
0.045 -9.37548e-06 0.000272588 0.04875 -9.40606e-06 0.000272107 0.0525 -9.43675e-06 0.000271626 0.05625
-9.46755e-06 0.000271146 0.06 -9.49808e-06 0.000270949 0.06375 -9.52461e-06 0.000270754 0.0675 -9.55122e-06
0.00027056 0.07125 -9.57791e-06 0.000270366 0.075 -9.60467e-06 0.000270172 0.07875 -9.60401e-06 0.000270125
0.0825 -9.62832e-06 0.000270081 0.08625 -9.65269e-06 0.000270037 0.09 -9.67713e-06 0.000269993 0.09375
-9.70164e-06 0.000269949 0.0975 -9.70324e-06 0.000269954 0.10125 -9.72863e-06 0.000269962 0.105 -9.75409e-06
[...]
POINT_DATA 19472
FIELD attributes 3
age 1 19472 float
0 7.30151e-05 0.000146034 0.000219056 0.000292083 0.000365113 0.000553993 0.000742873 0.000931753 0.00112065 0.00130958
0.00136288 0.00141619 0.0014695 0.0015228 0.00157611 0.00171177 0.00184742 0.00198309 0.00211877 0.00225447
0.00244352 0.00263257 0.00282162 0.00301068 0.00319979 0.00338893 0.00357807 0.00376722 0.00395638 0.00414558
0.00433483 0.00452407 0.00471331 0.00490258 0.00509188 0.00528123 0.00547063 0.00566007 0.00584954 0.006039
0.00622847 0.00641798 0.00660754 0.00679713 0.00698672 0.00717631 0.00736595 0.00755564 0.00774536 0.00793508
0.0081248 0.00831458 0.00850441 0.00869428 0.00888414 0.009074 0.00926393 0.00945391 0.00964393 0.00983395
0.010024 0.010214 0.0104042 0.0105944 0.0107846 0.0109747 0.011165 0.0113553 0.0115457 0.011736
0.0119264 0.0121168 0.0123073 0.0124979 0.0126885 0.012879 0.0130696 0.0132604 0.0134511 0.0136419
0.0138327 0.0140235 0.0142144 0.0144054 0.0145964 0.0147874 0.0149785 0.0151697 0.0153609 0.0155522
0.0157434 0.0159347 0.0161262 0.0163177 0.0165092 0.0167007 0.0168923 0.017084 0.0172758 0.0174676
0.0176594 0.0178513 0.0180434 0.0182355 0.0184276 0.0186197 0.018812 0.0190044 0.0191968 0.0193893
0.0195818 0.0197744 0.0199671 0.02016 0.0203528 0.0205456 0.0207385 0.0209313 0.0211243 0.0213174
0.0215107 0.0217039 0.0218972 0.0220906 0.0222841 0.0224778 0.0226716 0.0228653 0.0230591 0.0232532
0.0234474 0.0236416 0.0238358 0.0240302 0.0242248 0.0244196 0.0246143 0.0248091 0.0250041 0.0251992
0.0253946 0.02559 0.0257854 0.025981 0.0261768 0.0263729 0.0265689 0.026765 0.0269613 0.0271578
0.0273546 0.0275514 0.0277483 0.0279453 0.0281426 0.0283402 0.0285379 0.0287355 0.0289334 0.0291316
0.0293302 0.0295287 0.0297273 0.0299261 0.0301253 0.0303248 0.0305244 0.030724 0.0309238 0.0311241
0.0313248 0.0315254 0.0317261 0.0319271 0.0321286 0.0323304 0.0325323 0.0327342 0.0329365 0.0331392
0.0333424 0.0335456 0.0337489 0.0339525 0.0341566 0.0343613 0.0345659 0.0347706 0.0349757 0.0351813
0.0353875 0.0355937 0.0357999 0.0360065 0.0362137 0.0364215 0.0366299 0.0368389 0.0370483 0.0372577
0.0374671 0.0376771 0.0378876 0.0380986 0.0383096 0.0385205 0.038732 0.038944 0.0391564 0.0393687
0.0395809 0.0397936 0.0400068 0.0402202 0.0404335 0.0406466 0.0408601 0.0410739 0.0412878 0.0415015
0.041715 0.0419285 0.0421421 0.0423555 0.0425687 0.0427816 0.0429941 0.0432061 0.0434178 0.0436292
0.0438402 0.0440503 0.0442595 0.0444681 0.0446764 0.0448842 0.0450906 0.0452955 0.0454998 0.0457038
0.0459073 0.0461087 0.0463082 0.0465073 0.0467061 0.0469046 0.0471003 0.0472941 0.0474877 0.0476811
0.0478743 0.0480642 0.0482526 0.0484411 0.0486295 0.0488179 0.0490026 0.0491868 0.0493711 0.0495556
0.0497402 0.0499214 0.0501028 0.0502844 0.0504663 0.0506483 0.0508282 0.0510083 0.0511886 0.0513691
0.0515497 0.0517296 0.0519096 0.0520896 0.0522698 0.05245 0.0526303 0.0528107 0.0529911 0.0531716
0.0533523 0.0535329 0.0537136 0.0538943 0.054075 0.0542561 0.0544371 0.0546181 0.0547992 0.0549803
0.0551617 0.0553431 0.0555245 0.0557059 0.0558873 0.056069 0.0562508 0.0564325 0.0566142 0.0567959
0.056978 0.05716 0.057342 0.057524 0.057706 0.0578884 0.0580707 0.058253 0.0584353 0.0586176
0.0588002 0.0589828 0.0591654 0.0593479 0.0595305 0.0597135 0.0598963 0.0600792 0.0602621 0.060445
0.0606282 0.0608114 0.0609946 0.0611778 0.061361 0.0615446 0.0617281 0.0619116 0.0620951 0.0622786
0.0624624 0.0626462 0.06283 0.0630138 0.0631976 0.0633816 0.0635657 0.0637498 0.0639339 0.0641179
0.0643023 0.0644866 0.0646709 0.0648553 0.0650396 0.0652242 0.0654087 0.0655933 0.0657779 0.0659624
0.0661473 0.066332 0.0665168 0.0667016 0.0668864 0.0670714 0.0672565 0.0674417 0.0676268 0.067812
0.0679972 0.0681825 0.0683678 0.0685531 0.0687384 0.0689237 0.0691092 0.0692946 0.0694801 0.0696655
0.069851 0.0700366 0.0702221 0.0704077 0.0705933 0.0707788 0.0709645 0.0711502 0.0713358 0.0715215
0.0717072 0.0718929 0.0720787 0.0722644 0.0724501 0.0726359 0.0728217 0.0730075 0.0731933 0.0733791
0.0735649 0.0737507 0.0739366 0.0741224 0.0743083 0.0744941 0.07468 0.0748658 0.0750517 0.0752375
0.0754234 0.0756092 0.0757951 0.0759809 0.0761668 0.0763526 0.0765385 0.0767243 0.0769101 0.0770959
0.0772818 0.0774675 0.0776533 0.0778391 0.0780249 0.0782107 0.0783964 0.0785822 0.0787679 0.0789537
0.0791394 0.0793251 0.0795108 0.0796965 0.0798822 0.080068 0.0802537 0.0804394 0.080625 0.0808107
0.0809964 0.0811822 0.0813679 0.0815536 0.0817393 0.081925 0.0821107 0.0822965 0.0824822 0.0826679
0.0828391 0.0830104 0.0831816 0.0833529 0.0835245 0.083539 0.0835534 0.0835678 0.0835823 0.0835967
0.0837825 0.0839684 0.0841542 0.08434 0.0845258 0.0847117 0.0848976 0.0850835 0.0852694 0.0854553
0.0856412 0.0858272 0.0860131 0.0861991 0.0863851 0.0865711 0.0867571 0.0869431 0.0871291 0.0873152
0.0875013 0.0876873 0.0878734 0.0880595 0.0882456 0.0884317 0.0886179 0.088804 0.0889901 0.0891763
0.0893625 0.0895486 0.0897348 0.089921 0.0901072 0.0902934 0.0904797 0.0906659 0.0908521 0.0910384
0.0912247 0.0914109 0.0915972 0.0917835 0.0919698 0.0921561 0.0923424 0.0925287 0.092715 0.0929013
0.0930877 0.093274 0.0934604 0.0936467 0.0938331 0.0940195 0.0942059 0.0943923 0.0945786 0.094765
0.0949515 0.0951379 0.0953243 0.0955107 0.0956971 0.0958836 0.0960701 0.0962565 0.096443 0.0966294
0.0968159 0.0970025 0.097189 0.0973755 0.0975621 0.0977486 0.0979352 0.0981218 0.0983084 0.098495
0.0986816 0.0988683 0.0990549 0.0992416 0.0994283 0.0996149 0.0998016 0.0999883 0.100175 0.100362
0.100548 0.100735 0.100922 0.101109 0.101295 0.101482 0.101669 0.101856 0.102042 0.102229
0.102416 0.102603 0.10279 0.102977 0.103164 0.103351 0.103539 0.103726 0.103914 0.104101
0.104288 0.104476 0.104664 0.104852 0.10504 0.105228 0.105416 0.105605 0.105793 0.105981
0.10617 0.106359 0.106548 0.106737 0.106926 0.107115 0.107305 0.107494 0.107684 0.107874
0.108063 0.108254 0.108444 0.108634 0.108824 0.109015 0.109205 0.109396 0.109587 0.109777
0.109968 0.110159 0.11035 0.110541 0.110731 0.110922 0.111113 0.111304 0.111496 0.111687
0.111877 0.112069 0.11226 0.112451 0.112642 0.112833 0.113024 0.113215 0.113406 0.113597
0.113788 0.113979 0.114171 0.114362 0.114553 0.114744 0.114935 0.115126 0.115317 0.115509
0.115699 0.115891 0.116082 0.116273 0.116464 0.116655 0.116846 0.117037 0.117228 0.117419
0.11761 0.117801 0.117992 0.118183 0.118374 0.118565 0.118756 0.118947 0.119138 0.119329
0.11952 0.119711 0.119901 0.120092 0.120283 0.120474 0.120665 0.120856 0.121047 0.121238
0.121429 0.12162 0.12181 0.122001 0.122192 0.122383 0.122574 0.122765 0.122956 0.123147
0.123337 0.123528 0.123719 0.12391 0.124101 0.124291 0.124482 0.124673 0.124864 0.125055
0.125245 0.125436 0.125627 0.125818 0.126009 0.126199 0.12639 0.126581 0.126772 0.126962
0.127153 0.127344 0.127535 0.127725 0.127916 0.128107 0.128297 0.128488 0.128679 0.12887
0.12906 0.129251 0.129442 0.129632 0.129823 0.130013 0.130204 0.130395 0.130585 0.130776
0.130966 0.131157 0.131347 0.131538 0.131729 0.131919 0.132109 0.1323 0.13249 0.132681
0.132871 0.133061 0.133252 0.133443 0.133633 0.133823 0.134013 0.134204 0.134395 0.134585
0.134775 0.134965 0.135156 0.135346 0.135537 0.135726 0.135917 0.136107 0.136298 0.136488
0.136678 0.136868 0.137059 0.137249 0.137439 0.137629 0.137819 0.13801 0.1382 0.138391
0.13858 0.13877 0.138961 0.139151 0.139341 0.139531 0.139721 0.139911 0.140102 0.140292
0.140481 0.140671 0.140862 0.141052 0.141242 0.141431 0.141621 0.141811 0.142002 0.142192
0.142381 0.142571 0.142761 0.142951 0.143141 0.143329 0.143519 0.143709 0.143899 0.144089
0.144278 0.144468 0.144657 0.144847 0.145037 0.145226 0.145415 0.145605 0.145795 0.145984
0.146173 0.146362 0.146552 0.146742 0.146931 0.14712 0.147309 0.147499 0.147688 0.147877
0.148066 0.148255 0.148445 0.148634 0.148823 0.149012 0.149201 0.14939 0.149579 0.149769
0.149957 0.150146 0.150335 0.150524 0.150714 0.150902 0.151091 0.15128 0.151469 0.151658
0.152035 0.152411 0.152788 0.153165 0.153542 0.154293 0.155044 0.155795 0.156546 0.157297
0.158798 0.160299 0.161799 0.1633 0.1648 0.166301 0.167801 0.169301 0.170801 0.172302
0.175302 0.178302 0.181302 0.184302 0.187303 0.193303 0.199303 0.205303 0.211303 0.217303
0.223303 0.229303 0.235303 0.241303 0.247303 0.253303 0.259303 0.265303 0.271303 0.277303
0.283303 0.289304 0.295304 0.301304 0.307304 0.313304 0.319304 0.325304 0.331304 0.337304
0.343304 0.349304 0.355304 0.361304 0.367304 0.373304 0.379304 0.385304 0.391304 0.397304
0.403304 0.403356 0 7.36882e-05 0.00014738 0.000221076 0.000294776 0.00036848 0.000432908 0.00049734
0.000561775 0.000626215 0.000689479 0.000815951 0.000942437 0.00106894 0.00119546 0.00132199 0.00151278 0.00170361
0.00189448 0.00208538 0.00227632 0.00246729 0.0026583 0.00284935 0.00304043 0.00323156 0.00342272 0.00361392
0.00380516 0.00399645 0.00418777 0.00437914 0.00457054 0.004762 0.00495349 0.00514503 0.00533661 0.00552824
0.00571991 0.00591163 0.0061034 0.00629522 0.00648708 0.006679 0.00687096 0.00706298 0.00725504 0.00744716
0.00763933 0.00783156 0.00802384 0.00821617 0.00840856 0.00860101 0.00879352 0.00898608 0.00917871 0.00937139
0.00956414 0.00975695 0.00994982 0.0101428 0.0103358 0.0105288 0.010722 0.0109152 0.0111084 0.0113018
0.0114952 0.0116887 0.0118822 0.0120759 0.0122696 0.0124634 0.0126572 0.0128512 0.0130452 0.0132393
0.0134335 0.0136278 0.0138222 0.0140166 0.0142111 0.0144058 0.0146005 0.0147953 0.0149902 0.0151852
0.0153803 0.0155756 0.0157709 0.0159663 0.0161618 0.0163574 0.0165532 0.016749 0.0169449 0.017141
0.0173372 0.0175335 0.0177299 0.0179265 0.0181232 0.01832 0.0185169 0.0187139 0.0189111 0.0191085
0.0193059 0.0195035 0.0197013 0.0198992 0.0200972 0.0202955 0.0204938 0.0206923 0.020891 0.0210898
0.0212888 0.021488 0.0216874 0.0218869 0.0220866 0.0222865 0.0224865 0.0226868 0.0228873 0.0230879
0.0232888 0.0234898 0.0236911 0.0238926 0.0240943 0.0242962 0.0244984 0.0247008 0.0249034 0.0251062
0.0253093 0.0255127 0.0257163 0.0259202 0.0261243 0.0263287 0.0265334 0.0267384 0.0269437 0.0271493
0.0273551 0.0275613 0.0277678 0.0279746 0.0281818 0.0283893 0.0285971 0.0288053 0.0290138 0.0292227
0.029432 0.0296417 0.0298518 0.0300623 0.0302732 0.0304845 0.0306962 0.0309084 0.031121 0.0313341
0.0315477 0.0317618 0.0319763 0.0321913 0.0324069 0.032623 0.0328397 0.0330569 0.0332747 0.0334931
0.033712 0.0339316 0.0341518 0.0343726 0.0345941 0.0348163 0.0350392 0.0352628 0.0354871 0.0357121
0.0359379 0.0361645 0.0363919 0.0366201 0.0368491 0.0370791 0.0373099 0.0375416 0.0377741 0.0380077
0.0382421 0.0384776 0.0387141 0.0389516 0.0391902 0.0394299 0.0396707 0.0399126 0.0401556 0.0403997
0.040645 0.0408915 0.0411393 0.0413883 0.0416386 0.0418902 0.0421431 0.0423974 0.0426529 0.0429095
0.0431673 0.0434264 0.0436872 0.0439491 0.0442123 0.0444766 0.044742 0.0450093 0.0452771 0.0455454
0.0458143 0.0460836 0.0463555 0.0464822 0.0466089 0.0467356 0.0468621 0.0469419 0.0470962 0.0472503
0.0474042 0.047558 0.0477128 0.0479835 0.0482525 0.0485197 0.048785 0.0490533 0.049199 0.0493435
0.0494868 0.049629 0.0497388 0.0498596 0.0499797 0.0500989 0.0502174 0.050336 0.0505834 0.0508256
0.0510629 0.0512954 0.0515245 0.0515397 0.0515548 0.0515699 0.0515849 0.0516 0.051807 0.0520093
0.0522072 0.0524009 0.0525885 0.0526995 0.0528089 0.0529166 0.0530229 0.0531563 0.053231 0.053305
0.0533784 0.0534511 0.0535227 0.0536971 0.0538678 0.054035 0.054199 0.0543566 0.0544946 0.0546312
0.0547662 0.0548997 0.0551226 0.0551366 0.0551507 0.0551647 0.0551788 0.0551947 0.0553268 0.0554584
0.0555894 0.0557198 0.055849 0.0559919 0.0561349 0.0562781 0.0564214 0.0565646 0.0567079 0.0568515
0.0569954 0.0571397 0.0572844 0.0574294 0.0575748 0.0577205 0.0578666 0.0580131 0.0581599 0.058307
0.0584544 0.0586022 0.0587502 0.0588987 0.0590474 0.0591964 0.0593457 0.0594954 0.0596453 0.0597955
0.0599461 0.0600969 0.060248 0.0603995 0.0605512 0.0607033 0.0608556 0.0610083 0.0611613 0.0613146
0.0614682 0.0616221 0.0617764 0.061931 0.062086 0.0622413 0.0623969 0.0625529 0.0627092 0.0628659
0.0630229 0.0631802 0.0633379 0.063496 0.0636544 0.0638131 0.0639722 0.0641316 0.0642914 0.0644515
0.0646119 0.0647727 0.0649338 0.0650953 0.065257 0.0654191 0.0655815 0.0657443 0.0659073 0.0660706
0.0662343 0.0663982 0.0665625 0.066727 0.0668918 0.0670569 0.0672223 0.067388 0.0675539 0.0677201
0.0678866 0.0680533 0.0682202 0.0683875 0.0685549 0.0687226 0.0688906 0.0690587 0.0692271 0.0693958
0.0695646 0.0697336 0.0699028 0.0700723 0.0702419 0.0704118 0.0705818 0.070752 0.0709224 0.0710929
0.0712636 0.0714345 0.0716056 0.0717768 0.0719482 0.0721197 0.0722913 0.0724631 0.072635 0.0728071
0.0729792 0.0731515 0.0733239 0.0734964 0.073669 0.0738417 0.0740145 0.0741874 0.0743603 0.0745334
0.0747064 0.0748796 0.0750528 0.0752261 0.0753994 0.0755728 0.0757462 0.0759196 0.076093 0.0762665
0.0764399 0.0766133 0.0767868 0.0769603 0.0771337 0.0773071 0.0774805 0.0776539 0.0778272 0.0780005
0.0781737 0.0783469 0.0785201 0.0786932 0.0788663 0.0790393 0.0792123 0.0793852 0.0795581 0.0797309
0.0799037 0.0800764 0.0802491 0.0804217 0.0805943 0.080767 0.0809396 0.0811122 0.0812847 0.0814573
0.0816299 0.0818026 0.0819752 0.0821479 0.0823207 0.0824935 0.0826664 0.0828216 0.0828252 0.0828287
0.0828323 0.0828358 0.0828394 0.0830124 0.0831855 0.0833587 0.0835319 0.0837053 0.0838788 0.0840524
0.084226 0.0843999 0.0845738 0.0847478 0.0849219 0.0850961 0.0852704 0.0854449 0.0856194 0.0857941
0.0859689 0.0861439 0.0863189 0.086494 0.0866693 0.0868446 0.08702 0.0871956 0.0873712 0.087547
0.0877229 0.0878989 0.0880749 0.0882511 0.0884273 0.0886037 0.0887801 0.0889566 0.0891333 0.08931
0.0894869 0.0896638 0.0898408 0.0900179 0.090195 0.0903723 0.0905496 0.090727 0.0909045 0.0910821
0.0912598 0.0914375 0.0916154 0.0917933 0.0919713 0.0921493 0.0923274 0.0925056 0.0926839 0.0928623
0.0930408 0.0932193 0.0933979 0.0935766 0.0937553 0.0939341 0.094113 0.0942919 0.094471 0.0946501
0.0948293 0.0950085 0.0951879 0.0953673 0.0955468 0.0957263 0.095906 0.0960857 0.0962655 0.0964454
0.0966255 0.0968056 0.0969857 0.0971662 0.0973466 0.0975272 0.0977079 0.0978888 0.0980703 0.0982519
0.0984337 0.0986157 0.0987977 0.098979 0.0991604 0.0993418 0.0995232 0.0997046 0.0998864 0.100068
0.10025 0.100432 0.100613 0.100795 0.100978 0.10116 0.101342 0.101525 0.101708 0.101891
0.102075 0.102259 0.102443 0.102628 0.102814 0.103 0.103187 0.103374 0.103563 0.103752
0.103942 0.104134 0.104326 0.104519 0.104714 0.104909 0.105105 0.105303 0.105503 0.105704
0.105907 0.106111 0.106316 0.106524 0.106732 0.106942 0.107153 0.107367 0.107583 0.1078
0.10802 0.108241 0.108464 0.108689 0.108916 0.109144 0.109374 0.109607 0.109842 0.110078
0.110317 0.110558 0.1108 0.111044 0.11129 0.111538 0.111788 0.112039 0.112293 0.112548
0.112805 0.113063 0.113323 0.113585 0.113848 0.114113 0.114379 0.114647 0.114916 0.115186
0.115458 0.11573 0.116004 0.116279 0.116556 0.116833 0.117111 0.117391 0.117671 0.117952
0.118234 0.118516 0.1188 0.119084 0.119369 0.119654 0.11994 0.120227 0.120514 0.120801
0.121089 0.121378 0.121667 0.121955 0.122245 0.122535 0.122825 0.123116 0.123406 0.123697
0.123988 0.124279 0.12457 0.12478 0.12499 0.1252 0.12541 0.125611 0.125694 0.125777
0.12586 0.125943 0.126026 0.126317 0.126608 0.126899 0.127189 0.12748 0.12777 0.128061
0.128351 0.128641 0.128931 0.129219 0.129509 0.129798 0.130087 0.130376 0.130662 0.13095
0.131238 0.131525 0.131811 0.132096 0.132382 0.132668 0.132954 0.133238 0.133521 0.133805
0.134089 0.134373 0.134656 0.134937 0.135219 0.135502 0.135784 0.136065 0.136344 0.136624
0.136904 0.137184 0.137463 0.13774 0.138018 0.138296 0.138573 0.13885 0.139125 0.139401
0.139676 0.13995 0.140225 0.140234 0.140244 0.140253 0.140262 0.140272 0.140536 0.1408
0.141064 0.141327 0.14159 0.141861 0.142133 0.142404 0.142675 0.142945 0.143214 0.143484
0.143753 0.144022 0.144291 0.144557 0.144826 0.145094 0.145361 0.145628 0.145892 0.146158
0.146425 0.146691 0.146956 0.147218 0.147482 0.147747 0.148013 0.148275 0.148536 0.148798
0.149062 0.149325 0.149586 0.149845 0.150105 0.150367 0.150628 0.150888 0.151145 0.151404
0.151664 0.151923 0.152181 0.152437 0.152694 0.152952 0.153209 0.153466 0.15372 0.153976
0.154232 0.154488 0.154743 0.154996 0.155251 0.155505 0.155759 0.156012 0.156264 0.156517
0.156769 0.157021 0.157273 0.157524 0.157775 0.158025 0.158276 0.158526 0.158708 0.158891
0.159074 0.159256 0.159426 0.159495 0.159564 0.159633 0.159702 0.159771 0.160019 0.160267
0.160515 0.160763 0.161011 0.161258 0.161506 0.161753 0.162001 0.162248 0.162494 0.162741
0.162987 0.163234 0.16348 0.163725 0.16397 0.164215 0.16446 0.164705 0.164949 0.165193
0.165436 0.16568 0.165923 0.166165 0.166408 0.16665 0.166892 0.167133 0.167168 0.167204
0.167239 0.167274 0.167306 0.167513 0.167719 0.167924 0.168129 0.168334 0.168801 0.169272
0.169723 0.170158 0.17059 0.171399 0.172207 0.173014 0.173816 0.174616 0.176147 0.177681
0.17921 0.180736 0.182259 0.183768 0.18528 0.186791 0.188301 0.18981 0.192818 0.195828
0.198837 0.201845 0.204852 0.210856 0.216861 0.222865 0.22887 0.234874 0.240875 0.246878
0.25288 0.258883 0.264886 0.270886 0.276888 0.28289 0.288892 0.294894 0.300895 0.306897
0.312898 0.3189 0.324902 0.330902 0.336904 0.342905 0.348906 0.354908 0.360908 0.366909
0.372911 0.378912 0.384913 0.390913 0.396914 0.402915 0.408916 0.414917 0.420917 0.423728
0 7.36641e-05 0.000147333 0.000221006 0.000294684 0.000368367 0.000434441 0.00050052 0.000566602 0.000632688
0.000697533 0.000822316 0.000947113 0.00107192 0.00119675 0.00132159 0.00151232 0.00170309 0.0018939 0.00208474
0.00227561 0.00246652 0.00265747 0.00284845 0.00303947 0.00323052 0.00342162 0.00361275 0.00380392 0.00399513
0.00418638 0.00437768 0.00456901 0.00476038 0.0049518 0.00514326 0.00533477 0.00552631 0.00571791 0.00590955
0.00610123 0.00629296 0.00648474 0.00667656 0.00686844 0.00706036 0.00725234 0.00744436 0.00763644 0.00782857
0.00802075 0.00821298 0.00840527 0.00859762 0.00879002 0.00898248 0.009175 0.00936757 0.00956021 0.0097529
0.00994566 0.0101385 0.0103314 0.0105243 0.0107173 0.0109104 0.0111035 0.0112968 0.01149 0.0116834
0.0118768 0.0120703 0.0122639 0.0124575 0.0126512 0.012845 0.0130389 0.0132329 0.0134269 0.013621
0.0138152 0.0140095 0.0142039 0.0143984 0.0145929 0.0147875 0.0149823 0.0151771 0.015372 0.015567
0.0157622 0.0159574 0.0161527 0.0163481 0.0165436 0.0167393 0.016935 0.0171309 0.0173268 0.0175229
0.0177191 0.0179154 0.0181119 0.0183084 0.0185051 0.0187019 0.0188989 0.0190959 0.0192932 0.0194905
0.019688 0.0198856 0.0200834 0.0202813 0.0204794 0.0206776 0.020876 0.0210745 0.0212732 0.0214721
0.0216711 0.0218703 0.0220697 0.0222692 0.022469 0.0226689 0.022869 0.0230693 0.0232698 0.0234705
0.0236714 0.0238725 0.0240738 0.0242754 0.0244771 0.0246791 0.0248813 0.0250838 0.0252865 0.0254894
0.0256927 0.0258961 0.0260998 0.0263038 0.0265081 0.0267126 0.0269175 0.0271226 0.027328 0.0275338
0.0277398 0.0279462 0.0281529 0.0283599 0.0285673 0.0287751 0.0289832 0.0291916 0.0294005 0.0296098
0.0298194 0.0298571 0.0298948 0.0299325 0.0299702 0.0300071 0.03018 0.0303531 0.0305266 0.0307004
0.0308744 0.0310867 0.0312994 0.0315127 0.0317265 0.0319408 0.0321556 0.0323709 0.0325869 0.0328034
0.0330205 0.0332383 0.0334566 0.0336757 0.0338954 0.0341158 0.0343368 0.0345587 0.0347813 0.0350048
0.035229 0.035454 0.0356799 0.0359067 0.0361345 0.0363632 0.0365928 0.0368236 0.0370555 0.0372884
0.0375225 0.0377577 0.0379941 0.0382319 0.038471 0.0387115 0.0389533 0.0391968 0.039442 0.0396888
0.0399371 0.0401872 0.0404391 0.0406931 0.0409491 0.0412071 0.0414672 0.0417298 0.0419949 0.0422627
0.042533 0.0428067 0.0430833 0.0433631 0.0436462 0.043933 0.0442226 0.0445164 0.0448143 0.0451165
0.0454242 0.045734 0.0460484 0.0463675 0.0466911 0.0470249 0.0471816 0.0473395 0.0474986 0.0476586
0.047736 0.0479422 0.0481497 0.0483585 0.0485685 0.0487869 0.0490869 0.049389 0.0496926 0.0499954
0.0500862 0.0502059 0.0503253 0.0504443 0.050563 0.0506863 0.0508827 0.051077 0.0512692 0.051459
0.0515827 0.0517872 0.0519882 0.0521857 0.0523797 0.0525851 0.0526114 0.0526375 0.0526637 0.0526897