# vtk DataFile Version 2.0
tracks
ASCII
DATASET POLYDATA
POINTS 19519 float
-1.001 1e-07 0.0011 -0.99955 9.91482e-08 0.00110002 -0.9981 9.8291e-08 0.00110004 -0.99665 9.74285e-08
0.00110007 -0.9952 9.65605e-08 0.0011001 -0.99375 9.56872e-08 0.00110014 -0.99 9.3396e-08 0.00110024
-0.98625 9.1122e-08 0.00110034 -0.9825 8.88474e-08 0.00110044 -0.97875 8.65464e-08 0.00110054 -0.975
8.41945e-08 0.00110068 -0.97125 8.17759e-08 0.00110083 -0.9675 7.93722e-08 0.00110098 -0.96375 7.69678e-08
0.00110113 -0.96 7.45352e-08 0.00110129 -0.95625 7.20482e-08 0.00110145 -0.9525 6.95004e-08 0.00110162
-0.94875 6.69584e-08 0.00110179 -0.945 6.44155e-08 0.00110196 -0.94125 6.1842e-08 0.00110213 -0.9375
5.92097e-08 0.00110231 -0.93375 5.65075e-08 0.00110249 -0.93 5.38157e-08 0.00110266 -0.92625 5.1123e-08
0.00110284 -0.9225 4.84004e-08 0.00110302 -0.91875 4.56208e-08 0.0011032 -0.915 4.27752e-08 0.00110339
-0.91125 3.99377e-08 0.00110358 -0.9075 3.70991e-08 0.00110376 -0.90375 3.42326e-08 0.00110395 -0.9
3.13134e-08 0.00110414 -0.89625 2.83351e-08 0.00110433 -0.8925 2.53108e-08 0.00110453 -0.88875 2.22341e-08
0.00110473 -0.885 1.91294e-08 0.00110494 -0.88125 1.60235e-08 0.00110514 -0.8775 1.29152e-08 0.00110535
-0.87375 9.75281e-09 0.00110556 -0.87 6.53498e-09 0.00110577 -0.86625 3.28751e-09 0.00110599 -0.8625
3.87212e-11 0.0011062 -0.862491 3.09769e-11 0.0011062 -0.862482 2.32324e-11 0.0011062 -0.862473 1.54876e-11
0.0011062 -0.862464 7.74242e-12 0.00110621 -0.862455 1.73459e-17 0.00110621 -0.858714 -3.24302e-09 0.00110642
-0.854973 -6.54018e-09 0.00110664 -0.851232 -9.89152e-09 0.00110687 -0.847491 -1.32717e-08 0.0011071 -0.84375
-1.66534e-08 0.00110733 -0.84 -2.00434e-08 0.00110756 -0.83625 -2.34863e-08 0.0011078 -0.8325 -2.69808e-08
0.00110804 -0.82875 -3.05034e-08 0.00110828 -0.825 -3.40275e-08 0.00110853 -0.82125 -3.75455e-08 0.00110877
-0.8175 -4.1118e-08 0.00110903 -0.81375 -4.47369e-08 0.00110928 -0.81 -4.83813e-08 0.00110955 -0.80625
-5.20275e-08 0.00110981 -0.8025 -5.5663e-08 0.00111007 -0.79875 -5.93544e-08 0.00111034 -0.795 -6.30887e-08
0.00111062 -0.79125 -6.68469e-08 0.0011109 -0.7875 -7.0607e-08 0.00111118 -0.78375 -7.43646e-08 0.00111146
-0.78 -7.81717e-08 0.00111174 -0.77625 -8.20231e-08 0.00111204 -0.7725 -8.58994e-08 0.00111234 -0.76875
-8.97777e-08 0.00111264 -0.765 -9.36526e-08 0.00111294 -0.76125 -9.75794e-08 0.00111325 -0.7575 -1.01551e-07
0.00111356 -0.75375 -1.05549e-07 0.00111388 -0.75 -1.09549e-07 0.0011142 -0.74625 -1.1352e-07 0.00111453
-0.7425 -1.17569e-07 0.00111486 -0.73875 -1.21661e-07 0.0011152 -0.735 -1.25779e-07 0.00111554 -0.73125
-1.299e-07 0.00111589 -0.7275 -1.33984e-07 0.00111623 -0.72375 -1.38153e-07 0.00111658 -0.72 -1.42364e-07
0.00111695 -0.71625 -1.466e-07 0.00111732 -0.7125 -1.50839e-07 0.00111769 -0.70875 -1.55034e-07 0.00111806
-0.705 -1.59321e-07 0.00111844 -0.70125 -1.63651e-07 0.00111883 -0.6975 -1.68007e-07 0.00111923 -0.69375
-1.72365e-07 0.00111963 -0.69 -1.76718e-07 0.00112002 -0.68625 -1.81126e-07 0.00112043 -0.6825 -1.85577e-07
0.00112086 -0.67875 -1.90054e-07 0.00112128 -0.675 -1.94534e-07 0.00112171 -0.67125 -1.99008e-07 0.00112214
-0.6675 -2.03539e-07 0.00112258 -0.66375 -2.08112e-07 0.00112303 -0.66 -2.12712e-07 0.00112349 -0.65625
-2.17315e-07 0.00112395 -0.6525 -2.21839e-07 0.00112441 -0.64875 -2.26495e-07 0.00112488 -0.645 -2.31193e-07
0.00112537 -0.64125 -2.35917e-07 0.00112587 -0.6375 -2.40645e-07 0.00112636 -0.63375 -2.45367e-07 0.00112686
-0.63 -2.50152e-07 0.00112736 -0.62625 -2.54983e-07 0.00112789 -0.6225 -2.59842e-07 0.00112842 -0.61875
-2.64705e-07 0.00112895 -0.615 -2.69564e-07 0.00112948 -0.61125 -2.74488e-07 0.00113003 -0.6075 -2.7946e-07
0.00113059 -0.60375 -2.84461e-07 0.00113116 -0.6 -2.89468e-07 0.00113174 -0.59625 -2.9447e-07 0.00113231
-0.5925 -2.99498e-07 0.00113288 -0.58875 -3.04531e-07 0.00113345 -0.585 -3.09595e-07 0.00113403 -0.58125
-3.14708e-07 0.00113463 -0.5775 -3.19707e-07 0.00113525 -0.57375 -3.24889e-07 0.00113586 -0.57 -3.30076e-07
0.00113648 -0.56625 -3.35298e-07 0.0011371 -0.5625 -3.40573e-07 0.00113775 -0.55875 -3.45711e-07 0.00113841
-0.555 -3.51064e-07 0.00113907 -0.55125 -3.56423e-07 0.00113973 -0.5475 -3.61821e-07 0.0011404 -0.54375
-3.67281e-07 0.00114109 -0.54 -3.72798e-07 0.0011418 -0.53625 -3.78347e-07 0.00114251 -0.5325 -3.83904e-07
0.00114322 -0.52875 -3.89505e-07 0.00114394 -0.525 -3.95174e-07 0.00114468 -0.52125 -4.00647e-07 0.00114544
-0.5175 -4.06419e-07 0.0011462 -0.51375 -4.12199e-07 0.00114696 -0.51 -4.18024e-07 0.00114773 -0.50625
-4.23917e-07 0.00114852 -0.5025 -4.29563e-07 0.00114933 -0.49875 -4.35565e-07 0.00115014 -0.495 -4.41575e-07
0.00115095 -0.49125 -4.47629e-07 0.00115177 -0.4875 -4.53748e-07 0.00115261 -0.48375 -4.59937e-07 0.00115347
-0.48 -4.6617e-07 0.00115434 -0.47625 -4.72413e-07 0.0011552 -0.4725 -4.78702e-07 0.00115607 -0.46875
-4.85059e-07 0.00115696 -0.465 -4.91493e-07 0.00115787 -0.46125 -4.97976e-07 0.00115878 -0.4575 -5.0447e-07
0.00115969 -0.45375 -5.11019e-07 0.00116061 -0.45 -5.17646e-07 0.00116155 -0.44625 -5.24369e-07 0.00116251
-0.4425 -5.31145e-07 0.00116346 -0.43875 -5.37935e-07 0.00116442 -0.435 -5.44783e-07 0.00116538 -0.43125
-5.51715e-07 0.00116636 -0.4275 -5.58113e-07 0.00116734 -0.42375 -5.65213e-07 0.00116833 -0.42 -5.72328e-07
0.00116933 -0.41625 -5.79498e-07 0.00117032 -0.4125 -5.86744e-07 0.00117132 -0.40875 -5.9333e-07 0.00117233
-0.405 -6.00753e-07 0.00117334 -0.40125 -6.08192e-07 0.00117435 -0.3975 -6.15682e-07 0.00117536 -0.39375
-6.2324e-07 0.00117637 -0.39 -6.30915e-07 0.00117738 -0.38625 -6.38663e-07 0.00117838 -0.3825 -6.46431e-07
0.00117939 -0.37875 -6.54245e-07 0.00118039 -0.375 -6.6212e-07 0.00118137 -0.37125 -6.70119e-07 0.00118234
-0.3675 -6.78201e-07 0.0011833 -0.36375 -6.86303e-07 0.00118427 -0.36 -6.94448e-07 0.00118521 -0.35625
-7.02643e-07 0.00118612 -0.3525 -7.09633e-07 0.00118698 -0.34875 -7.18053e-07 0.00118785 -0.345 -7.26496e-07
0.00118872 -0.34125 -7.34966e-07 0.00118955 -0.3375 -7.43466e-07 0.00119031 -0.33375 -7.52104e-07 0.001191
-0.33 -7.60846e-07 0.0011917 -0.32625 -7.69611e-07 0.00119239 -0.3225 -7.78376e-07 0.00119301 -0.31875
-7.8713e-07 0.00119353 -0.315 -7.96012e-07 0.00119394 -0.31125 -8.05006e-07 0.00119436 -0.3075 -8.14027e-07
0.00119477 -0.30375 -8.23018e-07 0.00119507 -0.3 -8.31959e-07 0.00119521 -0.29625 -8.38685e-07 0.0011952
-0.2925 -8.4772e-07 0.00119495 -0.28875 -8.56633e-07 0.00119446 -0.285 -8.65461e-07 0.00119381 -0.28125
-8.74311e-07 0.00119315 -0.2775 -8.80603e-07 0.0011925 -0.27375 -8.89525e-07 0.00119151 -0.27 -8.98179e-07
0.00119019 -0.26625 -9.06644e-07 0.00118862 -0.2625 -9.15129e-07 0.00118706 -0.25875 -9.2057e-07 0.00118549
-0.255 -9.29009e-07 0.00118345 -0.25125 -9.37007e-07 0.00118093 -0.2475 -9.44701e-07 0.00117807 -0.24375
-9.52411e-07 0.00117522 -0.24 -9.60467e-07 0.00117237 -0.23625 -9.6798e-07 0.0011689 -0.2325 -9.74831e-07
0.00116479 -0.22875 -9.81244e-07 0.00116027 -0.225 -9.87673e-07 0.00115577 -0.22125 -9.89901e-07 0.00115129
-0.2175 -9.95741e-07 0.00114595 -0.21375 -1.00054e-06 0.00113974 -0.21 -1.00471e-06 0.00113304 -0.20625
-1.00891e-06 0.00112638 -0.2025 -1.00835e-06 0.00111976 -0.19875 -1.01186e-06 0.00111194 -0.195 -1.01397e-06
0.00110291 -0.19125 -1.01536e-06 0.00109331 -0.1875 -1.0168e-06 0.00108379 -0.18375 -1.0186e-06 0.00107438
-0.18 -1.01849e-06 0.00106343 -0.17625 -1.01641e-06 0.00105098 -0.1725 -1.01355e-06 0.00103802 -0.16875
-1.0108e-06 0.00102524 -0.165 -1.00861e-06 0.00101263 -0.16125 -1.00375e-06 0.000998248 -0.1575 -9.96217e-07
0.000982118 -0.15375 -9.88126e-07 0.000965751 -0.15 -9.80238e-07 0.000949687 -0.14625 -9.73029e-07 0.000933918
-0.1425 -9.61388e-07 0.00091615 -0.13875 -9.45411e-07 0.000896447 -0.135 -9.29442e-07 0.000877007 -0.13125
-9.13878e-07 0.000858025 -0.1275 -8.92782e-07 0.000839489 -0.12375 -8.73589e-07 0.000818884 -0.12 -8.5079e-07
0.000796623 -0.11625 -8.28654e-07 0.000775005 -0.1125 -8.07162e-07 0.000754009 -0.10875 -7.80892e-07 0.000733613
-0.105 -7.53081e-07 0.000711191 -0.10125 -7.21191e-07 0.000687809 -0.0975 -6.90335e-07 0.000665221 -0.0937499
-6.60475e-07 0.000643398 -0.0899999 -6.31785e-07 0.000622311 -0.0862499 -5.98695e-07 0.000599686 -0.0824999 -5.64695e-07
0.000576999 -0.0787499 -5.31912e-07 0.000555174 -0.0749999 -5.00298e-07 0.000534179 -0.0712499 -4.69912e-07 0.000513981
-0.0674999 -4.39004e-07 0.000493694 -0.0637499 -4.08973e-07 0.000474056 -0.0599999 -3.80035e-07 0.000455185 -0.0562499
-3.52148e-07 0.000437054 -0.0524999 -3.22966e-07 0.000419633 -0.0487498 -2.89511e-07 0.000404552 -0.0449998 -2.57084e-07
0.000389996 -0.0412498 -2.25651e-07 0.000375947 -0.0374998 -1.9518e-07 0.000362389 -0.0337498 -1.65643e-07 0.000349306
-0.0299998 -1.28258e-07 0.000340679 -0.0262498 -9.15663e-08 0.000332257 -0.0224998 -5.55519e-08 0.000324035 -0.0187499
-2.0199e-08 0.000316009 -0.0183133 -1.61576e-08 0.000315097 -0.0178766 -1.20505e-08 0.000314269 -0.01744 -7.87749e-09
0.000313525 -0.0170034 -3.63773e-09 0.000312864 -0.0166338 8.08704e-12 0.000312376 -0.0133071 3.3272e-08 0.000308511
-0.00998028 6.70005e-08 0.000305471 -0.0066535 1.00572e-07 0.00030246 -0.00332672 1.33988e-07 0.000299477 6.11904e-08
1.67252e-07 0.000296523 0.00375005 2.0453e-07 0.000293224 0.00750005 2.41507e-07 0.000289961 0.01125 2.78269e-07
0.000286733 0.015 3.14819e-07 0.00028354 0.01875 3.51159e-07 0.00028038 0.0225 3.88504e-07 0.000279339
0.02625 4.25726e-07 0.000278301 0.03 4.62972e-07 0.000277267 0.03375 5.00242e-07 0.000276237 0.0375
5.37537e-07 0.000275211 0.04125 5.79927e-07 0.00027472 0.045 6.22143e-07 0.000274231 0.04875 6.64436e-07
0.000273743 0.0525 7.06807e-07 0.000273255 0.05625 7.49257e-07 0.000272768 0.06 7.96652e-07 0.000272569
0.06375 8.4639e-07 0.00027237 0.0675 8.96244e-07 0.000272171 0.07125 9.46212e-07 0.000271973 0.075
9.96297e-07 0.000271774 0.07875 1.05589e-06 0.000271727 0.0825 1.1153e-06 0.00027168 0.08625 1.17485e-06
0.000271632 0.09 1.23455e-06 0.000271585 0.09375 1.2944e-06 0.000271538 0.0975 1.36497e-06 0.000271543
[...]
POINT_DATA 19519
FIELD attributes 3
age 1 19519 float
0 7.30161e-05 0.000146036 0.000219059 0.000292086 0.000365117 0.000554 0.000742882 0.000931765 0.00112066 0.0013096
0.00149856 0.00168752 0.00187649 0.00206547 0.00225449 0.00244354 0.00263259 0.00282164 0.00301071 0.00319982
0.00338896 0.00357811 0.00376725 0.00395642 0.00414563 0.00433487 0.00452412 0.00471336 0.00490263 0.00509194
0.00528129 0.00547069 0.00566014 0.0058496 0.00603907 0.00622854 0.00641806 0.00660762 0.00679721 0.0069868
0.00698725 0.00698771 0.00698816 0.00698861 0.00698906 0.0071782 0.00736739 0.00755664 0.00774591 0.00793518
0.00812491 0.00831469 0.00850452 0.00869439 0.00888425 0.00907412 0.00926405 0.00945403 0.00964405 0.00983407
0.0100241 0.0102142 0.0104043 0.0105945 0.0107847 0.0109749 0.0111651 0.0113555 0.0115458 0.0117362
0.0119266 0.012117 0.0123075 0.0124981 0.0126886 0.0128792 0.0130698 0.0132605 0.0134513 0.0136421
0.0138328 0.0140237 0.0142146 0.0144056 0.0145966 0.0147876 0.0149787 0.0151699 0.0153611 0.0155524
0.0157436 0.015935 0.0161264 0.0163179 0.0165094 0.0167009 0.0168926 0.0170843 0.0172761 0.0174679
0.0176597 0.0178516 0.0180437 0.0182358 0.0184279 0.01862 0.0188123 0.0190047 0.0191971 0.0193896
0.019582 0.0197747 0.0199674 0.0201603 0.0203531 0.020546 0.0207388 0.0209317 0.0211246 0.0213177
0.021511 0.0217043 0.0218975 0.0220909 0.0222845 0.0224782 0.0226719 0.0228656 0.0230595 0.0232535
0.0234478 0.023642 0.0238362 0.0240306 0.0242252 0.02442 0.0246147 0.0248095 0.0250045 0.0251996
0.025395 0.0255904 0.0257858 0.0259814 0.0261772 0.0263733 0.0265694 0.0267654 0.0269617 0.0271582
0.0273551 0.0275519 0.0277487 0.0279457 0.0281431 0.0283407 0.0285384 0.028736 0.0289339 0.0291321
0.0293307 0.0295292 0.0297278 0.0299266 0.0301258 0.0303254 0.0305249 0.0307245 0.0309244 0.0311246
0.0313253 0.031526 0.0317267 0.0319276 0.0321291 0.032331 0.0325329 0.0327348 0.032937 0.0331398
0.033343 0.0335462 0.0337494 0.033953 0.0341572 0.0343618 0.0345665 0.0347712 0.0349762 0.0351819
0.035388 0.0355942 0.0358004 0.0360071 0.0362143 0.0364221 0.0366304 0.0368394 0.0370489 0.0372583
0.0374677 0.0376777 0.0378882 0.0380992 0.0383102 0.0385211 0.0387326 0.0389446 0.039157 0.0393693
0.0395815 0.0397942 0.0400074 0.0402208 0.0404341 0.0406473 0.0408607 0.0410745 0.0412884 0.0415021
0.0417156 0.0419291 0.0421427 0.0423561 0.0425693 0.0427822 0.0429947 0.0432068 0.0434184 0.0436298
0.0438408 0.0440509 0.0442601 0.0444687 0.044677 0.0448849 0.0450912 0.0452961 0.0455004 0.0457044
0.045908 0.0461094 0.0463088 0.046508 0.0467068 0.0469052 0.0471009 0.0472948 0.0474884 0.0476818
0.047875 0.0480649 0.0482534 0.0484418 0.0486302 0.0488186 0.0490033 0.0491876 0.0493719 0.0495564
0.049741 0.0499222 0.0501037 0.0502854 0.0504672 0.0506493 0.0508292 0.0510094 0.0511897 0.0513702
0.0513912 0.0514123 0.0514333 0.0514542 0.051472 0.0516317 0.0517914 0.051951 0.0521108 0.0522706
0.0524509 0.0526312 0.0528115 0.052992 0.0531725 0.0533532 0.0535338 0.0537145 0.0538952 0.0540759
0.054257 0.054438 0.0546191 0.0548001 0.0549812 0.0551626 0.055344 0.0555254 0.0557068 0.0558883
0.05607 0.0562517 0.0564334 0.0566152 0.0567969 0.0569789 0.057161 0.057343 0.057525 0.057707
0.0578893 0.0580716 0.0582539 0.0584362 0.0586185 0.0588012 0.0589837 0.0591663 0.0593489 0.0595315
0.0597144 0.0598973 0.0600802 0.0602631 0.060446 0.0606292 0.0608124 0.0609956 0.0611788 0.061362
0.0615455 0.061729 0.0619125 0.062096 0.0622795 0.0624633 0.0626471 0.0628309 0.0630147 0.0631985
0.0633826 0.0635667 0.0637507 0.0639348 0.0641189 0.0643032 0.0644876 0.0646719 0.0648562 0.0650406
0.0652251 0.0654097 0.0655943 0.0657789 0.0659634 0.0661482 0.066333 0.0665178 0.0667026 0.0668874
0.0670723 0.0672575 0.0674427 0.0676278 0.067813 0.0679981 0.0681834 0.0683687 0.068554 0.0687394
0.0689163 0.0690933 0.0692703 0.0694474 0.0696665 0.0697165 0.0697666 0.0698167 0.0698668 0.0700894
0.0701904 0.0702914 0.0703923 0.0704933 0.0705942 0.0707798 0.0709655 0.0711511 0.0713368 0.0715225
0.0717082 0.0718939 0.0720797 0.0722654 0.0723356 0.0723587 0.0723818 0.0724049 0.072428 0.0724512
0.0726369 0.0728227 0.0730086 0.0731944 0.0733802 0.073566 0.0737519 0.0739377 0.0741236 0.0743095
0.0744953 0.0746812 0.0748671 0.075053 0.0752389 0.0754247 0.0756106 0.0757965 0.0759824 0.0761683
0.0763542 0.07654 0.0767259 0.0769117 0.0770976 0.0772835 0.0774693 0.0776551 0.0778409 0.0780268
0.0782126 0.0783984 0.0785842 0.0787699 0.0789557 0.0791415 0.0793272 0.079513 0.0796987 0.0798845
0.0800702 0.0802559 0.0804416 0.0806274 0.0808131 0.0809988 0.0811845 0.0813703 0.081556 0.0817417
0.0819274 0.0821132 0.0822989 0.0824846 0.0826704 0.0828561 0.0830419 0.0832276 0.0834134 0.0835992
0.083785 0.0839708 0.0841566 0.0843424 0.0845283 0.0847142 0.0849 0.0850859 0.0852718 0.0854577
0.0856436 0.0858296 0.0860155 0.0862015 0.0863875 0.0865735 0.0867595 0.0869455 0.0871315 0.0873176
0.0875037 0.0876897 0.0878758 0.0880619 0.088248 0.0884342 0.0886203 0.0888065 0.0889926 0.0891788
0.089365 0.0895512 0.0897374 0.0899236 0.0901098 0.0902961 0.0904823 0.0906686 0.0908548 0.0910411
0.0912274 0.0914137 0.0916 0.0917863 0.0919726 0.0921589 0.0923452 0.0925315 0.0927179 0.0929042
0.0930906 0.0932769 0.0934633 0.0936497 0.093836 0.0940224 0.0942088 0.0943952 0.0945816 0.094768
0.0949544 0.0951409 0.0953273 0.0955137 0.0957001 0.0958866 0.0960731 0.0962595 0.096446 0.0966324
0.0966378 0.0966431 0.0966485 0.0966539 0.0966593 0.0968404 0.0970216 0.0972028 0.097384 0.0975652
0.0977517 0.0979383 0.098125 0.0983116 0.0984982 0.0986848 0.0988715 0.0990582 0.0992449 0.0994316
0.0996183 0.099805 0.0999917 0.100178 0.100365 0.100552 0.100739 0.100925 0.101112 0.101299
0.101486 0.101673 0.101859 0.102046 0.102233 0.10242 0.102607 0.102794 0.102981 0.103168
0.103356 0.103543 0.10373 0.103918 0.104105 0.104293 0.10448 0.104668 0.104856 0.105044
0.105232 0.10542 0.105608 0.105797 0.105985 0.106173 0.106362 0.106551 0.10674 0.106929
0.107118 0.107307 0.107497 0.107686 0.107876 0.108065 0.108255 0.108445 0.108635 0.108825
0.109015 0.109205 0.109396 0.109586 0.109776 0.109967 0.110157 0.110348 0.110538 0.110729
0.110919 0.11111 0.111301 0.111492 0.111683 0.111873 0.112064 0.112255 0.112446 0.112636
0.112827 0.113018 0.113209 0.113399 0.11359 0.113781 0.113972 0.114163 0.114354 0.114544
0.114735 0.114926 0.115117 0.115308 0.115499 0.115689 0.11588 0.116071 0.116262 0.116452
0.116643 0.116834 0.117025 0.117215 0.117406 0.117597 0.117788 0.117978 0.118169 0.11836
0.11855 0.118741 0.118931 0.119122 0.119313 0.119503 0.119694 0.119884 0.120075 0.120265
0.120456 0.120647 0.120837 0.121028 0.121218 0.121409 0.121599 0.121789 0.12198 0.12217
0.122361 0.122551 0.122742 0.122932 0.123122 0.123313 0.123503 0.123693 0.123884 0.124074
0.124264 0.124455 0.124645 0.124835 0.125025 0.125216 0.125406 0.125596 0.125786 0.125976
0.126166 0.126357 0.126547 0.126737 0.126927 0.127117 0.127307 0.127497 0.127687 0.127877
0.128067 0.128257 0.128447 0.128637 0.128827 0.129017 0.129207 0.129397 0.129587 0.129777
0.129967 0.130157 0.130346 0.130536 0.130726 0.130916 0.131105 0.131295 0.131485 0.131674
0.131864 0.132054 0.132243 0.132433 0.132622 0.132812 0.133002 0.133191 0.133381 0.13357
0.13376 0.133949 0.134138 0.134328 0.134517 0.134707 0.134896 0.135085 0.135275 0.135464
0.135653 0.135842 0.136032 0.136221 0.13641 0.136599 0.136788 0.136977 0.137167 0.137356
0.137545 0.137734 0.137923 0.138112 0.138301 0.13849 0.138679 0.138868 0.139057 0.139246
0.139435 0.139624 0.139812 0.140001 0.14019 0.140379 0.140568 0.140756 0.140945 0.141134
0.141323 0.141511 0.1417 0.141889 0.142077 0.142266 0.142455 0.142643 0.142832 0.143021
0.143209 0.143398 0.143586 0.143775 0.143963 0.144152 0.14434 0.144529 0.144717 0.144906
0.145094 0.145282 0.145471 0.145659 0.145848 0.146036 0.146224 0.146413 0.146601 0.146789
0.146978 0.147166 0.147354 0.147542 0.147731 0.147919 0.148107 0.148295 0.148483 0.148672
0.14886 0.149048 0.149236 0.149424 0.149612 0.149801 0.149989 0.150177 0.150365 0.150553
0.150741 0.150929 0.151117 0.151305 0.151493 0.151869 0.152245 0.152621 0.152997 0.153373
0.154123 0.154874 0.155625 0.156375 0.157126 0.158626 0.160126 0.161627 0.163127 0.164627
0.166127 0.167627 0.169127 0.170627 0.172127 0.175127 0.178128 0.181128 0.184128 0.187128
0.193128 0.199128 0.205128 0.211128 0.217128 0.223128 0.229128 0.235128 0.241128 0.247128
0.253128 0.259128 0.265128 0.271129 0.277129 0.283129 0.289129 0.295129 0.301129 0.307129
0.313129 0.319129 0.325129 0.331129 0.337129 0.343129 0.349129 0.355129 0.361129 0.367129
0.373129 0.379129 0.385129 0.391129 0.397129 0.403129 0.403156 0 7.36903e-05 0.000147385
0.000221083 0.000294785 0.000368491 0.000559123 0.000749788 0.000940487 0.00113122 0.00132199 0.00151279 0.00170363
0.0018945 0.0020854 0.00227635 0.00246733 0.00265834 0.0028494 0.00304049 0.00323162 0.00324327 0.00325491
0.00326656 0.00327821 0.00328977 0.00346932 0.00364891 0.00382853 0.00400818 0.00418787 0.00437925 0.00457066
0.00476212 0.00495362 0.00514516 0.00533675 0.00552839 0.00572007 0.0059118 0.00610357 0.00629539 0.00648727
0.00667919 0.00687116 0.00706318 0.00725525 0.00744738 0.00763956 0.00783179 0.00802408 0.00821642 0.00840882
0.00860127 0.00879379 0.00898636 0.00917899 0.00937168 0.00956444 0.00975726 0.00995014 0.0101431 0.0103361
0.0105292 0.0107223 0.0109155 0.0111088 0.0113021 0.0114956 0.0116891 0.0118826 0.0120763 0.01227
0.0124638 0.0126577 0.0128516 0.0130457 0.0132398 0.013434 0.0136283 0.0138226 0.0140171 0.0142117
0.0144063 0.014601 0.0147959 0.0149908 0.0151858 0.0153809 0.0155761 0.0157714 0.0159669 0.0161624
0.016358 0.0165538 0.0167496 0.0169456 0.0171417 0.0173379 0.0175342 0.0177306 0.0179272 0.0181239
0.0183207 0.0185176 0.0187147 0.0189119 0.0191092 0.0193067 0.0195043 0.0197021 0.0199 0.0200981
0.0202963 0.0204947 0.0206932 0.0208919 0.0210907 0.0212897 0.0214889 0.0216883 0.0218878 0.0220875
0.0222874 0.0224875 0.0226878 0.0228883 0.0230889 0.0232898 0.0234909 0.0236922 0.0238937 0.0240954
0.0242973 0.0244995 0.0247019 0.0249045 0.0251074 0.0253105 0.0255139 0.0257175 0.0259214 0.0261256
0.02633 0.0265347 0.0267397 0.026945 0.0271506 0.0273565 0.0275627 0.0277692 0.027976 0.0281832
0.0283907 0.0285986 0.0288068 0.0290153 0.0292243 0.0294336 0.0296433 0.0298534 0.0300639 0.0302748
0.0304861 0.0306979 0.0309101 0.0311227 0.0313359 0.0315495 0.0317635 0.0319781 0.0321932 0.0324088
0.0326249 0.0328416 0.0330588 0.0332766 0.033495 0.033714 0.0339336 0.0341538 0.0343747 0.0345962
0.0348185 0.0350414 0.035265 0.0354893 0.0357144 0.0359402 0.0361668 0.0363942 0.0366224 0.0368515
0.0370815 0.0373123 0.0375441 0.0377767 0.0380102 0.0382447 0.0384802 0.0387167 0.0389543 0.0391929
0.0394326 0.0396735 0.0399154 0.0401585 0.0404026 0.040648 0.0408945 0.0411423 0.0413914 0.0416417
0.0418934 0.0421463 0.0424007 0.0426562 0.0429128 0.0431707 0.0434298 0.0436907 0.0439527 0.0442159
0.0444803 0.0447457 0.0450131 0.0452809 0.0455493 0.0458183 0.0460877 0.0463596 0.0464877 0.0466158
0.0467438 0.0468717 0.0469518 0.047105 0.047258 0.0474109 0.0475636 0.0477173 0.0479881 0.0482572
0.0485245 0.0487898 0.0490583 0.0492048 0.0493501 0.0494942 0.0496372 0.0497475 0.0498676 0.049987
0.0501056 0.0502234 0.0503415 0.0505889 0.0508312 0.0510686 0.0513012 0.0515304 0.051546 0.0515616
0.0515771 0.0515927 0.0516082 0.0518147 0.0520166 0.0522141 0.0524074 0.0525947 0.0527062 0.052816
0.0529241 0.0530309 0.053165 0.0532393 0.0533129 0.0533858 0.0534581 0.0535293 0.0537037 0.0538745
0.0540418 0.0542059 0.0543636 0.0545021 0.0546392 0.0547748 0.0549088 0.0551299 0.0551447 0.0551596
0.0551744 0.0551893 0.0552062 0.0553375 0.0554683 0.0555985 0.0557282 0.0558566 0.0559995 0.0561426
0.0562859 0.0564292 0.0565725 0.0567159 0.0568595 0.0570035 0.0571479 0.0572926 0.0574377 0.0575832
0.057729 0.0578752 0.0580217 0.0581685 0.0583157 0.0584632 0.058611 0.0587591 0.0589076 0.0590564
0.0592055 0.0593548 0.0595045 0.0596545 0.0598048 0.0599554 0.0601063 0.0602575 0.0604089 0.0605607
0.0607128 0.0608652 0.061018 0.061171 0.0613243 0.061478 0.061632 0.0617863 0.0619409 0.0620959
0.0622513 0.0624069 0.062563 0.0627193 0.062876 0.063033 0.0631904 0.0633482 0.0635063 0.0636647
0.0638235 0.0639826 0.0641421 0.0643019 0.0644621 0.0646225 0.0647834 0.0649445 0.065106 0.0652678
0.06543 0.0655924 0.0657552 0.0659183 0.0660817 0.0662454 0.0664094 0.0665737 0.0667383 0.0669031
0.0670683 0.0672337 0.0673994 0.0675653 0.0677316 0.067898 0.0680647 0.0682317 0.068399 0.0685664
0.0687341 0.0689021 0.0690702 0.0692386 0.0694072 0.069576 0.069745 0.0699142 0.0700836 0.0702532
0.0704231 0.0705931 0.0707632 0.0709336 0.0711041 0.0712748 0.0714457 0.0716167 0.0717879 0.0719593
0.0721308 0.0723025 0.0724743 0.0726462 0.0728183 0.0729904 0.0731628 0.0733352 0.0735078 0.0736805
0.0738532 0.0740261 0.0741991 0.0743722 0.0745454 0.0747186 0.0748919 0.0750653 0.0752387 0.0754122
0.0755858 0.0757594 0.075933 0.0761067 0.0762804 0.0764541 0.0766278 0.0768016 0.0769753 0.077149
0.0773228 0.0774965 0.0776701 0.0778438 0.0780174 0.078191 0.0783645 0.078538 0.0787115 0.0788849
0.0790582 0.0792315 0.0794048 0.079578 0.0797511 0.0799242 0.0800972 0.0802702 0.0804431 0.080616
0.0807889 0.0809618 0.0811347 0.0813075 0.0814803 0.0816531 0.0818259 0.0819988 0.0821716 0.0823446
0.0825175 0.0826906 0.0828637 0.0830368 0.08321 0.0833832 0.0835566 0.08373 0.0839035 0.0840772
0.0842509 0.0844248 0.0845987 0.0847727 0.0849469 0.0851211 0.0852955 0.08547 0.0856446 0.0858193
0.0859941 0.0861691 0.0863442 0.0865193 0.0866946 0.08687 0.0870455 0.0872211 0.0873969 0.0875727
0.0877487 0.0879248 0.088101 0.0882773 0.0884536 0.0886301 0.0888067 0.0889833 0.0891601 0.089337
0.089514 0.0896911 0.0898682 0.0900454 0.0902227 0.0904001 0.0905775 0.0907551 0.0909327 0.0911104
0.0912882 0.091466 0.091644 0.0918219 0.092 0.0921781 0.0923562 0.0925345 0.0927128 0.0928912
0.0930696 0.0932482 0.0934268 0.0936054 0.0937841 0.0939629 0.0941417 0.0943206 0.0944996 0.0946786
0.0948578 0.095037 0.0952163 0.0953956 0.095575 0.0957545 0.0959341 0.0961137 0.0962935 0.0964733
0.0966533 0.0968333 0.0970135 0.0971938 0.0973742 0.0975548 0.0977354 0.0979163 0.0980977 0.0982794
0.0984612 0.0986431 0.0988252 0.0990066 0.099188 0.0993694 0.099551 0.0997326 0.0999145 0.100096
0.100278 0.10046 0.100643 0.100825 0.101007 0.10119 0.101373 0.101556 0.101739 0.101923
0.102107 0.102291 0.102476 0.102661 0.102847 0.103034 0.103221 0.103408 0.103597 0.103787
0.103977 0.104169 0.104361 0.104554 0.104748 0.104943 0.10514 0.105337 0.105537 0.105737
0.10594 0.106143 0.106348 0.106554 0.106762 0.106971 0.107182 0.107394 0.107608 0.107825
0.108043 0.108263 0.108484 0.108708 0.108933 0.109159 0.109388 0.109618 0.109851 0.110085
0.110322 0.11056 0.1108 0.111042 0.111285 0.11153 0.111777 0.112025 0.112276 0.112528
0.112782 0.113037 0.113294 0.113552 0.113811 0.114072 0.114335 0.114598 0.114863 0.11513
0.115397 0.115665 0.115935 0.116205 0.116477 0.11675 0.117023 0.117297 0.117572 0.117848
0.118124 0.118401 0.118679 0.118957 0.119236 0.119516 0.119796 0.120076 0.120357 0.120638
0.120918 0.1212 0.121482 0.121763 0.122046 0.122328 0.122611 0.122893 0.12309 0.123287
0.123483 0.12368 0.123866 0.123954 0.124042 0.124131 0.124219 0.124307 0.124372 0.124438
0.124504 0.12457 0.124635 0.124852 0.125069 0.125286 0.125503 0.125719 0.126002 0.126283
0.126565 0.126846 0.127127 0.127408 0.127688 0.127968 0.128247 0.128526 0.128805 0.129084
0.129363 0.129641 0.129918 0.130195 0.130472 0.130748 0.131024 0.131299 0.131574 0.131849
0.132124 0.132398 0.132672 0.132946 0.133218 0.133491 0.133763 0.134034 0.134306 0.134577
0.134848 0.135119 0.13539 0.135659 0.135929 0.136198 0.136467 0.136735 0.137003 0.137272
0.13754 0.137807 0.138075 0.138341 0.138608 0.138874 0.139141 0.139407 0.13952 0.139634
0.139747 0.139861 0.13998 0.14013 0.14028 0.140431 0.140581 0.14073 0.140994 0.141258
0.141521 0.141783 0.142046 0.142307 0.142569 0.14283 0.14309 0.14335 0.14361 0.14387
0.144129 0.144388 0.144646 0.144904 0.145162 0.145419 0.145676 0.145932 0.146188 0.146444
0.1467 0.146956 0.147211 0.147465 0.147719 0.147973 0.148227 0.14848 0.148733 0.148986
0.149239 0.149491 0.149744 0.149995 0.150246 0.150497 0.150748 0.150999 0.151248 0.151499
0.151749 0.151999 0.152249 0.152497 0.152746 0.152995 0.153243 0.153492 0.153739 0.153987
0.154235 0.154483 0.154731 0.154977 0.155224 0.15547 0.155717 0.155963 0.156208 0.156454
0.1567 0.156946 0.157191 0.157435 0.15768 0.157925 0.15817 0.158414 0.158657 0.158901
0.159145 0.159389 0.159633 0.159875 0.160118 0.160361 0.160604 0.160847 0.161088 0.16133
0.161572 0.161814 0.162056 0.162296 0.162537 0.162777 0.163018 0.163258 0.163497 0.163737
0.163976 0.164215 0.164454 0.164692 0.16493 0.165168 0.165406 0.165643 0.16587 0.166096
0.166322 0.166548 0.166691 0.166718 0.166744 0.166771 0.166797 0.166824 0.167292 0.167755
0.168204 0.168639 0.169061 0.169867 0.17067 0.171468 0.172263 0.173051 0.174579 0.176098
0.177618 0.179136 0.180655 0.182163 0.183675 0.185186 0.186695 0.188204 0.191175 0.194149
0.19712 0.200091 0.203249 0.209253 0.215259 0.221264 0.227268 0.233273 0.239274 0.245277
0.251279 0.257282 0.263285 0.269285 0.275288 0.28129 0.287292 0.293294 0.299295 0.305297
0.311298 0.3173 0.323302 0.329302 0.335304 0.341305 0.347307 0.353308 0.359309 0.36531
0.371311 0.377312 0.383314 0.389314 0.395315 0.401316 0.407317 0.413318 0.419318 0.421615
0 7.36662e-05 0.000147337 0.000221013 0.000294693 0.000368378 0.000558954 0.000749564 0.000940207 0.00113088
0.00132159 0.00151233 0.00170311 0.00189392 0.00208476 0.00227564 0.00246656 0.00265751 0.0028485 0.00303952
0.00323059 0.0032357 0.00324082 0.00324594 0.00325105 0.00325615 0.00344214 0.00362817 0.00381424 0.00400034
0.00418648 0.00437778 0.00456912 0.0047605 0.00495193 0.00514339 0.0053349 0.00552646 0.00571806 0.0059097
0.00610139 0.00629313 0.00648492 0.00667675 0.00686863 0.00706056 0.00725254 0.00744458 0.00763666 0.0078288
0.00802099 0.00821323 0.00840552 0.00859788 0.00879029 0.00898276 0.00917528 0.00936786 0.0095605 0.00975321
0.00994597 0.0101388 0.0103317 0.0105246 0.0107177 0.0109108 0.0111039 0.0112971 0.0114904 0.0116838
0.0118772 0.0120707 0.0122643 0.0124579 0.0126517 0.0128455 0.0130394 0.0132333 0.0134274 0.0136215
0.0138157 0.01401 0.0142044 0.0143989 0.0145934 0.0147881 0.0149828 0.0151777 0.0153726 0.0155676
0.0157628 0.015958 0.0161533 0.0163487 0.0165443 0.0167399 0.0169357 0.0171315 0.0173275 0.0175236
0.0177198 0.0179162 0.0181126 0.0183092 0.0185059 0.0187027 0.0188997 0.0190967 0.019294 0.0194913
0.0196888 0.0198865 0.0200842 0.0202822 0.0204803 0.0206785 0.0208769 0.0210754 0.0212741 0.021473
0.0216721 0.0218713 0.0220707 0.0222702 0.02247 0.0226699 0.02287 0.0230704 0.0232709 0.0234716
0.0236725 0.0238736 0.024075 0.0242765 0.0244783 0.0246803 0.0248826 0.025085 0.0252878 0.0254907
0.0256939 0.0258974 0.0261011 0.0263052 0.0265094 0.026714 0.0269189 0.027124 0.0273295 0.0275352
0.0277413 0.0279477 0.0281544 0.0283615 0.0285689 0.0287767 0.0289848 0.0291933 0.0294022 0.0296114
0.0298211 0.0298554 0.0298897 0.029924 0.0299584 0.029992 0.0301682 0.0303448 0.0305216 0.0306987
0.0308762 0.0310885 0.0313013 0.0315146 0.0317284 0.0319427 0.0321575 0.0323729 0.0325889 0.0328054
0.0330226 0.0332403 0.0334587 0.0336778 0.0338975 0.0341179 0.034339 0.0345609 0.0347836 0.0350071
0.0352313 0.0354564 0.0356823 0.0359092 0.036137 0.0363657 0.0365954 0.0368261 0.037058 0.037291
0.0375251 0.0377604 0.0379969 0.0382347 0.0384738 0.0387143 0.0389562 0.0391998 0.0394449 0.0396918
0.0399402 0.0401903 0.0404423 0.0406963 0.0409523 0.0412104 0.0414705 0.0417331 0.0419984 0.0422662
0.0425366 0.0428103 0.043087 0.0433668 0.04365 0.0439369 0.0442266 0.0445204 0.0448184 0.0451206
0.0454284 0.0457383 0.0460528 0.046372 0.0466957 0.0470296 0.0471891 0.0473499 0.0475119 0.0476748
0.0477523 0.0479564 0.0481618 0.0483685 0.0485763 0.0487924 0.0490944 0.0493986 0.0497044 0.0500092
0.0500995 0.0502178 0.0503359 0.0504536 0.0505709 0.0506928 0.0508907 0.0510864 0.0512798 0.051471