# vtk DataFile Version 2.0
tracks
ASCII
DATASET POLYDATA
POINTS 19514 float
-1.001 1e-07 0.0011 -0.99955 9.87342e-08 0.00110002 -0.9981 9.74642e-08 0.00110004 -0.99665 9.61902e-08
0.00110007 -0.9952 9.4912e-08 0.0011001 -0.99375 9.36297e-08 0.00110014 -0.99 9.02846e-08 0.00110024
-0.98625 8.69559e-08 0.00110034 -0.9825 8.36262e-08 0.00110044 -0.97875 8.02746e-08 0.00110054 -0.975
7.68806e-08 0.00110068 -0.97125 7.343e-08 0.00110083 -0.9675 6.99926e-08 0.00110098 -0.96375 6.65541e-08
0.00110113 -0.96 6.30929e-08 0.00110129 -0.95625 5.95885e-08 0.00110145 -0.9525 5.60354e-08 0.00110162
-0.94875 5.24866e-08 0.00110179 -0.945 4.89366e-08 0.00110196 -0.94125 4.5363e-08 0.00110213 -0.9375
4.17445e-08 0.00110231 -0.93375 3.80733e-08 0.00110249 -0.93 3.44088e-08 0.00110266 -0.92625 3.07431e-08
0.00110284 -0.9225 2.70519e-08 0.00110302 -0.91875 2.33128e-08 0.0011032 -0.915 1.95211e-08 0.00110339
-0.91125 1.57327e-08 0.00110357 -0.9075 1.19428e-08 0.00110376 -0.90375 8.12575e-09 0.00110395 -0.9
4.25743e-09 0.00110414 -0.899186 3.40594e-09 0.00110418 -0.898371 2.55206e-09 0.00110422 -0.897557 1.69559e-09
0.00110426 -0.896742 8.36537e-10 0.00110431 -0.895951 1.83789e-17 0.00110435 -0.893011 -3.11968e-09 0.0011045
-0.890071 -6.27309e-09 0.00110466 -0.887131 -9.45494e-09 0.00110482 -0.88419 -1.26378e-08 0.00110498 -0.88125
-1.58216e-08 0.00110514 -0.8775 -1.98802e-08 0.00110535 -0.87375 -2.40019e-08 0.00110556 -0.87 -2.81835e-08
0.00110577 -0.86625 -3.23972e-08 0.00110599 -0.8625 -3.66126e-08 0.0011062 -0.85875 -4.0822e-08 0.00110642
-0.855 -4.51061e-08 0.00110664 -0.85125 -4.94568e-08 0.00110687 -0.8475 -5.38435e-08 0.0011071 -0.84375
-5.82321e-08 0.00110733 -0.84 -6.26184e-08 0.00110756 -0.83625 -6.70838e-08 0.0011078 -0.8325 -7.16236e-08
0.00110804 -0.82875 -7.62038e-08 0.00110829 -0.825 -8.0786e-08 0.00110853 -0.82125 -8.53519e-08 0.00110878
-0.8175 -9.00197e-08 0.00110903 -0.81375 -9.47705e-08 0.00110929 -0.81 -9.95663e-08 0.00110955 -0.80625
-1.04364e-07 0.00110981 -0.8025 -1.0914e-07 0.00111007 -0.79875 -1.14033e-07 0.00111034 -0.795 -1.19016e-07
0.00111062 -0.79125 -1.2405e-07 0.0011109 -0.7875 -1.29086e-07 0.00111118 -0.78375 -1.34116e-07 0.00111146
-0.78 -1.39255e-07 0.00111174 -0.77625 -1.44493e-07 0.00111204 -0.7725 -1.49785e-07 0.00111234 -0.76875
-1.55079e-07 0.00111264 -0.765 -1.60368e-07 0.00111294 -0.76125 -1.65775e-07 0.00111325 -0.7575 -1.71291e-07
0.00111356 -0.75375 -1.76866e-07 0.00111388 -0.75 -1.82445e-07 0.0011142 -0.74625 -1.87976e-07 0.00111453
-0.7425 -1.93677e-07 0.00111486 -0.73875 -1.99495e-07 0.0011152 -0.735 -2.05378e-07 0.00111554 -0.73125
-2.11265e-07 0.00111589 -0.7275 -2.17093e-07 0.00111623 -0.72375 -2.23111e-07 0.00111658 -0.72 -2.29254e-07
0.00111695 -0.71625 -2.35467e-07 0.00111732 -0.7125 -2.41683e-07 0.00111769 -0.70875 -2.47829e-07 0.00111806
-0.705 -2.54186e-07 0.00111844 -0.70125 -2.60676e-07 0.00111883 -0.6975 -2.67241e-07 0.00111923 -0.69375
-2.73811e-07 0.00111963 -0.69 -2.80372e-07 0.00112002 -0.68625 -2.87092e-07 0.00112043 -0.6825 -2.93953e-07
0.00112085 -0.67875 -3.00894e-07 0.00112128 -0.675 -3.0784e-07 0.00112171 -0.67125 -3.14777e-07 0.00112214
-0.6675 -3.21888e-07 0.00112258 -0.66375 -3.29152e-07 0.00112303 -0.66 -3.36503e-07 0.00112349 -0.65625
-3.4386e-07 0.00112395 -0.6525 -3.51093e-07 0.00112441 -0.64875 -3.58626e-07 0.00112488 -0.645 -3.6632e-07
0.00112537 -0.64125 -3.74108e-07 0.00112586 -0.6375 -3.81903e-07 0.00112636 -0.63375 -3.89689e-07 0.00112685
-0.63 -3.97667e-07 0.00112736 -0.62625 -4.05809e-07 0.00112789 -0.6225 -4.14049e-07 0.00112842 -0.61875
-4.22297e-07 0.00112895 -0.615 -4.30537e-07 0.00112948 -0.61125 -4.38981e-07 0.00113003 -0.6075 -4.47599e-07
0.00113059 -0.60375 -4.56322e-07 0.00113116 -0.6 -4.65054e-07 0.00113173 -0.59625 -4.7378e-07 0.00113231
-0.5925 -4.82548e-07 0.00113288 -0.58875 -4.91325e-07 0.00113345 -0.585 -5.00212e-07 0.00113403 -0.58125
-5.09282e-07 0.00113463 -0.5775 -5.18272e-07 0.00113525 -0.57375 -5.27559e-07 0.00113586 -0.57 -5.36855e-07
0.00113648 -0.56625 -5.46265e-07 0.0011371 -0.5625 -5.5586e-07 0.00113774 -0.55875 -5.65328e-07 0.00113841
-0.555 -5.75148e-07 0.00113907 -0.55125 -5.8498e-07 0.00113973 -0.5475 -5.94927e-07 0.0011404 -0.54375
-6.05061e-07 0.00114109 -0.54 -6.15372e-07 0.0011418 -0.53625 -6.25739e-07 0.00114251 -0.5325 -6.3612e-07
0.00114322 -0.52875 -6.46622e-07 0.00114394 -0.525 -6.57312e-07 0.00114468 -0.52125 -6.6775e-07 0.00114543
-0.5175 -6.78689e-07 0.00114619 -0.51375 -6.89643e-07 0.00114695 -0.51 -7.00724e-07 0.00114772 -0.50625
-7.12002e-07 0.00114851 -0.5025 -7.22949e-07 0.00114932 -0.49875 -7.34495e-07 0.00115013 -0.495 -7.46058e-07
0.00115094 -0.49125 -7.57755e-07 0.00115177 -0.4875 -7.69656e-07 0.00115261 -0.48375 -7.81768e-07 0.00115347
-0.48 -7.9396e-07 0.00115433 -0.47625 -8.06171e-07 0.00115519 -0.4725 -8.18522e-07 0.00115607 -0.46875
-8.31082e-07 0.00115696 -0.465 -8.43869e-07 0.00115787 -0.46125 -8.56743e-07 0.00115878 -0.4575 -8.6964e-07
0.00115969 -0.45375 -8.8268e-07 0.00116061 -0.45 -8.95932e-07 0.00116155 -0.44625 -9.09422e-07 0.0011625
-0.4425 -9.2301e-07 0.00116345 -0.43875 -9.36624e-07 0.00116441 -0.435 -9.50386e-07 0.00116537 -0.43125
-9.6436e-07 0.00116635 -0.4275 -9.77463e-07 0.00116734 -0.42375 -9.918e-07 0.00116833 -0.42 -1.00617e-06
0.00116932 -0.41625 -1.02069e-06 0.00117031 -0.4125 -1.03542e-06 0.00117131 -0.40875 -1.04907e-06 0.00117232
-0.405 -1.06421e-06 0.00117333 -0.40125 -1.07938e-06 0.00117434 -0.3975 -1.0947e-06 0.00117535 -0.39375
-1.11024e-06 0.00117636 -0.39 -1.12608e-06 0.00117737 -0.38625 -1.14206e-06 0.00117837 -0.3825 -1.15808e-06
0.00117938 -0.37875 -1.17425e-06 0.00118038 -0.375 -1.19064e-06 0.00118136 -0.37125 -1.20735e-06 0.00118232
-0.3675 -1.22422e-06 0.00118329 -0.36375 -1.24113e-06 0.00118426 -0.36 -1.25819e-06 0.0011852 -0.35625
-1.27544e-06 0.0011861 -0.3525 -1.29062e-06 0.00118697 -0.34875 -1.30839e-06 0.00118784 -0.345 -1.32622e-06
0.00118871 -0.34125 -1.34418e-06 0.00118953 -0.3375 -1.36231e-06 0.00119029 -0.33375 -1.38082e-06 0.00119098
-0.33 -1.39952e-06 0.00119168 -0.32625 -1.41828e-06 0.00119237 -0.3225 -1.43715e-06 0.00119299 -0.31875
-1.45617e-06 0.00119351 -0.315 -1.47557e-06 0.00119392 -0.31125 -1.4952e-06 0.00119434 -0.3075 -1.51489e-06
0.00119475 -0.30375 -1.53464e-06 0.00119505 -0.3 -1.55446e-06 0.00119519 -0.29625 -1.5703e-06 0.00119517
-0.2925 -1.59068e-06 0.00119492 -0.28875 -1.61104e-06 0.00119444 -0.285 -1.63141e-06 0.00119378 -0.28125
-1.65182e-06 0.00119313 -0.2775 -1.66741e-06 0.00119247 -0.27375 -1.68834e-06 0.00119148 -0.27 -1.70914e-06
0.00119015 -0.26625 -1.72986e-06 0.00118859 -0.2625 -1.75062e-06 0.00118702 -0.25875 -1.76557e-06 0.00118546
-0.255 -1.78678e-06 0.00118342 -0.25125 -1.80767e-06 0.00118089 -0.2475 -1.82836e-06 0.00117803 -0.24375
-1.84908e-06 0.00117518 -0.24 -1.87048e-06 0.00117234 -0.23625 -1.89154e-06 0.00116886 -0.2325 -1.91202e-06
0.00116475 -0.22875 -1.93212e-06 0.00116023 -0.225 -1.95225e-06 0.00115573 -0.22125 -1.96407e-06 0.00115125
-0.2175 -1.98395e-06 0.0011459 -0.21375 -2.0027e-06 0.0011397 -0.21 -2.02076e-06 0.00113299 -0.20625
-2.03885e-06 0.00112633 -0.2025 -2.04731e-06 0.00111971 -0.19875 -2.06515e-06 0.00111189 -0.195 -2.08129e-06
0.00110286 -0.19125 -2.09656e-06 0.00109325 -0.1875 -2.11186e-06 0.00108374 -0.18375 -2.12787e-06 0.00107432
-0.18 -2.14161e-06 0.00106337 -0.17625 -2.15292e-06 0.00105092 -0.1725 -2.16327e-06 0.00103796 -0.16875
-2.17369e-06 0.00102518 -0.165 -2.18519e-06 0.00101257 -0.16125 -2.19336e-06 0.00099818 -0.1575 -2.19818e-06
0.000982051 -0.15375 -2.20224e-06 0.000965683 -0.15 -2.20646e-06 0.000949619 -0.14625 -2.21194e-06 0.000933848
-0.1425 -2.21194e-06 0.00091608 -0.13875 -2.20658e-06 0.000896376 -0.135 -2.20113e-06 0.000876937 -0.13125
-2.19608e-06 0.000857956 -0.1275 -2.17719e-06 0.000839418 -0.12375 -2.16739e-06 0.000818814 -0.12 -2.15266e-06
0.000796554 -0.11625 -2.13865e-06 0.000774937 -0.1125 -2.12534e-06 0.000753942 -0.10875 -2.09849e-06 0.000733545
-0.105 -2.07704e-06 0.000711124 -0.10125 -2.05021e-06 0.000687743 -0.0975 -2.02457e-06 0.000665155 -0.0937499
-2.00008e-06 0.000643333 -0.0899999 -1.97733e-06 0.000622244 -0.0862499 -1.94703e-06 0.000599621 -0.0824999 -1.91486e-06
0.000576935 -0.0787499 -1.88419e-06 0.000555112 -0.0749999 -1.85497e-06 0.000534119 -0.0712499 -1.82753e-06 0.000513918
-0.0674999 -1.79536e-06 0.000493634 -0.0637499 -1.76379e-06 0.000473997 -0.0599999 -1.73372e-06 0.000455129 -0.0562499
-1.70508e-06 0.000437 -0.0524999 -1.66669e-06 0.000419576 -0.0487498 -1.62752e-06 0.000404497 -0.0449998 -1.58983e-06
0.000389942 -0.0412498 -1.5536e-06 0.000375894 -0.0374998 -1.51875e-06 0.000362337 -0.0337498 -1.48531e-06 0.000349252
-0.0299998 -1.43811e-06 0.000340625 -0.0262498 -1.39196e-06 0.000332203 -0.0224998 -1.34685e-06 0.000323981 -0.0187499
-1.30276e-06 0.000315955 -0.0149999 -1.25952e-06 0.00030812 -0.0112499 -1.20595e-06 0.000304696 -0.0074999 -1.15275e-06
0.000301308 -0.00374991 -1.09991e-06 0.000297957 6.11906e-08 -1.04742e-06 0.000294642 0.00375005 -9.89705e-07 0.000291362
0.00750005 -9.37096e-07 0.000288119 0.01125 -8.84862e-07 0.000284911 0.015 -8.32999e-07 0.000281737 0.01875
-7.81501e-07 0.000278597 0.0225 -7.19243e-07 0.000277561 0.02625 -6.60077e-07 0.00027653 0.03 -6.00898e-07
0.000275502 0.03375 -5.41705e-07 0.000274478 0.0375 -4.82497e-07 0.000273458 0.04125 -4.09987e-07 0.000272971
0.045 -3.38987e-07 0.000272485 0.04875 -2.67872e-07 0.000271999 0.0525 -1.96641e-07 0.000271515 0.05625
-1.25293e-07 0.000271031 0.0573378 -1.00235e-07 0.000270974 0.0584257 -7.51426e-08 0.000270916 0.0595135 -5.00344e-08
0.000270859 0.0606013 -2.49104e-08 0.000270802 0.0616791 -1.65632e-12 0.000270745 0.0643433 6.1606e-08 0.000270605
0.0670075 1.23315e-07 0.000270465 0.0696717 1.85126e-07 0.000270325 0.0723358 2.47038e-07 0.000270185 0.075
3.09053e-07 0.000270045 0.07875 4.12388e-07 0.000269998 0.0825 5.15891e-07 0.000269951 0.08625 6.19656e-07
0.000269905 0.09 7.23681e-07 0.000269858 0.09375 8.27969e-07 0.000269812 0.0975 9.467e-07 0.000269817
[...]
POINT_DATA 19514
FIELD attributes 3
age 1 19514 float
0 7.3016e-05 0.000146036 0.000219059 0.000292086 0.000365117 0.000553999 0.000742881 0.000931763 0.00112066 0.00130959
0.00149856 0.00168752 0.00187649 0.00206547 0.00225448 0.00244354 0.00263259 0.00282164 0.00301071 0.00319982
0.00338896 0.00357811 0.00376725 0.00395642 0.00414562 0.00433487 0.00452411 0.00471336 0.00490262 0.00509193
0.00513306 0.00517419 0.00521532 0.00525645 0.00529638 0.00544489 0.00559342 0.00574198 0.00589054 0.00603909
0.00622856 0.00641808 0.00660764 0.00679723 0.00698682 0.00717641 0.00736606 0.00755575 0.00774548 0.0079352
0.00812492 0.0083147 0.00850454 0.0086944 0.00888427 0.00907414 0.00926406 0.00945405 0.00964407 0.00983409
0.0100241 0.0102142 0.0104043 0.0105945 0.0107847 0.0109749 0.0111652 0.0113555 0.0115458 0.0117362
0.0119266 0.012117 0.0123075 0.0124981 0.0126886 0.0128792 0.0130698 0.0132606 0.0134513 0.0136421
0.0138329 0.0140237 0.0142147 0.0144056 0.0145966 0.0147876 0.0149787 0.0151699 0.0153611 0.0155524
0.0157436 0.015935 0.0161264 0.0163179 0.0165094 0.0167009 0.0168926 0.0170843 0.0172761 0.0174679
0.0176597 0.0178516 0.0180437 0.0182358 0.0184279 0.01862 0.0188123 0.0190047 0.0191971 0.0193896
0.019582 0.0197747 0.0199674 0.0201603 0.0203531 0.020546 0.0207388 0.0209317 0.0211246 0.0213177
0.021511 0.0217043 0.0218975 0.0220909 0.0222845 0.0224782 0.0226719 0.0228656 0.0230595 0.0232535
0.0234477 0.023642 0.0238362 0.0240306 0.0242252 0.0244199 0.0246147 0.0248095 0.0250045 0.0251996
0.025395 0.0255904 0.0257858 0.0259814 0.0261772 0.0263733 0.0265693 0.0267654 0.0269617 0.0271582
0.027355 0.0275519 0.0277487 0.0279457 0.0281431 0.0283407 0.0285383 0.028736 0.0289339 0.0291321
0.0293306 0.0295292 0.0297278 0.0299266 0.0301258 0.0303253 0.0305249 0.0307245 0.0309243 0.0311246
0.0313253 0.0315259 0.0317266 0.0319276 0.0321291 0.0323309 0.0325328 0.0327347 0.032937 0.0331397
0.0333429 0.0335462 0.0337494 0.033953 0.0341571 0.0343618 0.0345664 0.0347711 0.0349762 0.0351818
0.035388 0.0355942 0.0358004 0.036007 0.0362142 0.036422 0.0366304 0.0368394 0.0370488 0.0372582
0.0374676 0.0376776 0.0378882 0.0380992 0.0383101 0.038521 0.0387325 0.0389445 0.0391569 0.0393692
0.0395815 0.0397942 0.0400073 0.0402207 0.040434 0.0406472 0.0408606 0.0410744 0.0412883 0.041502
0.0417155 0.041929 0.0421426 0.042356 0.0425692 0.0427821 0.0429946 0.0432066 0.0434183 0.0436296
0.0438406 0.0440508 0.0442599 0.0444686 0.0446768 0.0448847 0.0450911 0.0452959 0.0455003 0.0457042
0.0459078 0.0461092 0.0463086 0.0465078 0.0467065 0.046905 0.0471007 0.0472945 0.0474881 0.0476815
0.0478748 0.0480646 0.0482531 0.0484415 0.0486299 0.0488183 0.049003 0.0491873 0.0493716 0.0495561
0.0497407 0.0499219 0.0501033 0.050285 0.0504668 0.0506489 0.0508288 0.051009 0.0511893 0.0513698
0.0515504 0.0517304 0.0519104 0.0520905 0.0522707 0.0524509 0.0526313 0.0528117 0.0529922 0.0531727
0.0533534 0.0535341 0.0537148 0.0538955 0.0540763 0.0542574 0.0544384 0.0546195 0.0548006 0.0549817
0.0550344 0.055087 0.0551396 0.0551923 0.0552444 0.0553733 0.0555022 0.0556311 0.05576 0.055889
0.0560707 0.0562525 0.0564342 0.056616 0.0567978 0.0569798 0.0571619 0.0573439 0.057526 0.057708
0.0578904 0.0580727 0.058255 0.0584374 0.0586197 0.0588023 0.0589849 0.0591676 0.0593502 0.0595328
0.0597157 0.0598986 0.0600816 0.0602645 0.0604474 0.0606306 0.0608138 0.0609971 0.0611803 0.0613635
0.061547 0.0617305 0.0619141 0.0620976 0.0622811 0.0624649 0.0626487 0.0628325 0.0630164 0.0632002
0.0633843 0.0635684 0.0637524 0.0639365 0.0641206 0.064305 0.0644893 0.0646737 0.064858 0.0650424
0.0652269 0.0654115 0.0655961 0.0657807 0.0659653 0.0661501 0.0663349 0.0665197 0.0667045 0.0668893
0.0670743 0.0672594 0.0674446 0.0676298 0.0678149 0.0680001 0.0681854 0.0683707 0.0685561 0.0687414
0.0689267 0.0691122 0.0692976 0.0694831 0.0696686 0.069854 0.0700396 0.0702252 0.0704108 0.0705964
0.0707819 0.0709676 0.0711533 0.071339 0.0715247 0.0717104 0.0718961 0.0720819 0.0722677 0.0724534
0.0726392 0.072825 0.0730109 0.0731967 0.0733825 0.0735683 0.0737542 0.0739401 0.074126 0.0743118
0.0744977 0.0746836 0.0748695 0.0750554 0.0752413 0.0754271 0.075613 0.0757989 0.0759848 0.0761707
0.0763566 0.0765425 0.0767283 0.0769142 0.0771 0.0772859 0.0774717 0.0776576 0.0778434 0.0780292
0.0782151 0.0784009 0.0785867 0.0787724 0.0789582 0.079144 0.0793298 0.0795155 0.0797013 0.079887
0.0800728 0.0802585 0.0804443 0.08063 0.0808157 0.0810015 0.0811872 0.081373 0.0815587 0.0817445
0.0817985 0.0818526 0.0819066 0.0819607 0.0820147 0.0821464 0.0822781 0.0824098 0.0825415 0.0826732
0.082859 0.0830448 0.0832306 0.0834164 0.0836022 0.083788 0.0839738 0.0841597 0.0843455 0.0845314
0.0847173 0.0849032 0.0850891 0.085275 0.0854609 0.0856469 0.0858329 0.0860188 0.0862048 0.0863908
0.0865768 0.0867629 0.0869489 0.0871349 0.087321 0.0875071 0.0876932 0.0878793 0.0880653 0.0882514
0.0884376 0.0886237 0.0888099 0.088996 0.0891822 0.0893684 0.0895546 0.0897408 0.089927 0.0901132
0.0902995 0.0904857 0.090672 0.0908582 0.0910445 0.0912308 0.091417 0.0916033 0.0917896 0.0919759
0.0921623 0.0923486 0.092535 0.0927213 0.0929076 0.093094 0.0932804 0.0934668 0.0936532 0.0938395
0.094026 0.0942124 0.0943988 0.0945852 0.0947716 0.0949581 0.0951446 0.095331 0.0955175 0.095704
0.0958905 0.096077 0.0962635 0.09645 0.0966365 0.096823 0.0970096 0.0971962 0.0973828 0.0975694
0.097756 0.0979427 0.0981294 0.098316 0.0985027 0.0986894 0.0988761 0.0990628 0.0992496 0.0994363
0.099623 0.0998098 0.0999966 0.100183 0.10037 0.100557 0.100744 0.100931 0.101117 0.101304
0.101491 0.101678 0.101865 0.102052 0.102239 0.102426 0.102613 0.1028 0.102987 0.103174
0.103362 0.103549 0.103737 0.103924 0.104112 0.104299 0.104487 0.104675 0.104863 0.105051
0.105238 0.105427 0.105615 0.105804 0.105992 0.10618 0.106369 0.106558 0.106747 0.106936
0.107125 0.107314 0.107504 0.107693 0.107882 0.108072 0.108262 0.108451 0.108641 0.108831
0.109021 0.109211 0.109401 0.109591 0.109782 0.109972 0.110162 0.110352 0.110543 0.110733
0.110924 0.111114 0.111305 0.111495 0.111686 0.111876 0.112067 0.112257 0.112448 0.112638
0.112829 0.113019 0.11321 0.1134 0.113591 0.113781 0.113972 0.114162 0.114353 0.114544
0.114734 0.114925 0.115115 0.115306 0.115496 0.115687 0.115877 0.116068 0.116259 0.116449
0.11664 0.11683 0.117021 0.117211 0.117401 0.117592 0.117782 0.117973 0.118163 0.118354
0.118544 0.118735 0.118925 0.119115 0.119306 0.119496 0.119687 0.119877 0.120067 0.120258
0.120448 0.120638 0.120829 0.121019 0.121209 0.121399 0.12159 0.12178 0.12197 0.12216
0.122351 0.122541 0.122731 0.122921 0.123111 0.123302 0.123492 0.123682 0.123872 0.124062
0.124252 0.124442 0.124633 0.124823 0.125013 0.125143 0.125273 0.125403 0.125533 0.125666
0.125725 0.125785 0.125844 0.125903 0.125963 0.126153 0.126343 0.126533 0.126723 0.126912
0.127102 0.127292 0.127482 0.127672 0.127862 0.128052 0.128242 0.128432 0.128621 0.128811
0.129001 0.129191 0.129381 0.12957 0.12976 0.12995 0.130139 0.130329 0.130519 0.130708
0.130898 0.131088 0.131277 0.131467 0.131656 0.131846 0.132035 0.132225 0.132414 0.132604
0.132793 0.132983 0.133172 0.133362 0.133551 0.13374 0.13393 0.134119 0.134308 0.134498
0.134687 0.134876 0.135066 0.135255 0.135444 0.135633 0.135823 0.136012 0.136201 0.13639
0.136579 0.136768 0.136957 0.137147 0.137336 0.137525 0.137714 0.137903 0.138092 0.138281
0.13847 0.138659 0.138848 0.139037 0.139226 0.139415 0.139603 0.139792 0.139981 0.14017
0.140359 0.140548 0.140737 0.140925 0.141114 0.141303 0.141492 0.14168 0.141869 0.142058
0.142246 0.142435 0.142624 0.142812 0.143001 0.14319 0.143378 0.143567 0.143755 0.143944
0.144133 0.144321 0.14451 0.144698 0.144887 0.145075 0.145264 0.145452 0.14564 0.145829
0.146017 0.146206 0.146394 0.146582 0.146771 0.146959 0.147147 0.147336 0.147524 0.147712
0.147901 0.148089 0.148277 0.148465 0.148654 0.148842 0.14903 0.149218 0.149406 0.149595
0.149783 0.149971 0.150159 0.150347 0.150535 0.150723 0.150911 0.1511 0.151288 0.151476
0.151852 0.152228 0.152604 0.152979 0.153355 0.154106 0.154857 0.155607 0.156358 0.157108
0.158609 0.160109 0.161609 0.163109 0.164609 0.16611 0.16761 0.16911 0.17061 0.17211
0.175056 0.178002 0.180948 0.183893 0.187111 0.193111 0.199111 0.205111 0.211111 0.217111
0.223111 0.229111 0.235111 0.241111 0.247111 0.253111 0.259111 0.265111 0.271111 0.277111
0.283111 0.289111 0.295111 0.301111 0.307111 0.313111 0.319111 0.325111 0.331111 0.337111
0.343111 0.349111 0.355111 0.361111 0.367112 0.373112 0.379112 0.385112 0.391112 0.397112
0.403112 0.403142 0 7.36901e-05 0.000147384 0.000221082 0.000294784 0.00036849 0.000559121 0.000749786
0.000940485 0.00113122 0.00132198 0.00151278 0.00170362 0.00189449 0.0020854 0.00227634 0.00230332 0.0023303
0.00235728 0.00238426 0.00241105 0.00257511 0.0027392 0.00290331 0.00306746 0.00323163 0.0034228 0.00361401
0.00380526 0.00399654 0.00418787 0.00437924 0.00457066 0.00476212 0.00495362 0.00514516 0.00533675 0.00552838
0.00572006 0.00591179 0.00610357 0.00629539 0.00648726 0.00667918 0.00687115 0.00706317 0.00725524 0.00744737
0.00763955 0.00783178 0.00802406 0.0082164 0.0084088 0.00860126 0.00879377 0.00898634 0.00917897 0.00937167
0.00956442 0.00975724 0.00995012 0.0101431 0.0103361 0.0105291 0.0107223 0.0109155 0.0111088 0.0113021
0.0114955 0.011689 0.0118826 0.0120762 0.01227 0.0124638 0.0126576 0.0128516 0.0130456 0.0132397
0.0134339 0.0136282 0.0138226 0.0140171 0.0142116 0.0144063 0.014601 0.0147958 0.0149907 0.0151858
0.0153809 0.0155761 0.0157714 0.0159668 0.0161623 0.016358 0.0165537 0.0167496 0.0169455 0.0171416
0.0173378 0.0175341 0.0177306 0.0179271 0.0181238 0.0183206 0.0185176 0.0187146 0.0189118 0.0191092
0.0193067 0.0195043 0.019702 0.0198999 0.020098 0.0202962 0.0204946 0.0206931 0.0208918 0.0210906
0.0212897 0.0214889 0.0216882 0.0218877 0.0220875 0.0222874 0.0224874 0.0226877 0.0228882 0.0230888
0.0232897 0.0234908 0.0236921 0.0238936 0.0240953 0.0242972 0.0244994 0.0247018 0.0249044 0.0251073
0.0253104 0.0255138 0.0257174 0.0259213 0.0261255 0.0263299 0.0265346 0.0267396 0.0269449 0.0271505
0.0273564 0.0275626 0.0277691 0.0279759 0.0281831 0.0283906 0.0285984 0.0288067 0.0290152 0.0292241
0.0294334 0.0296432 0.0298532 0.0300637 0.0302746 0.030486 0.0306977 0.0309099 0.0311226 0.0313357
0.0315493 0.0317634 0.0319779 0.032193 0.0324086 0.0326247 0.0328414 0.0330587 0.0332764 0.0334948
0.0337138 0.0339334 0.0341536 0.0343745 0.034596 0.0348182 0.0350412 0.0352648 0.0354891 0.0357141
0.03594 0.0361666 0.036394 0.0366222 0.0368513 0.0370812 0.0373121 0.0375438 0.0377764 0.0380099
0.0382444 0.0384799 0.0387164 0.038954 0.0391926 0.0394323 0.0396731 0.0399151 0.0401581 0.0404023
0.0406476 0.0408941 0.0411419 0.041391 0.0416413 0.041893 0.0421459 0.0424002 0.0426557 0.0429124
0.0431702 0.0434293 0.0436902 0.0439522 0.0442154 0.0444797 0.0447451 0.0450125 0.0452803 0.0455487
0.0458176 0.046087 0.0463589 0.0464866 0.0466144 0.046742 0.0468695 0.0469495 0.047103 0.0472564
0.0474095 0.0475625 0.0477165 0.0479873 0.0482563 0.0485236 0.0487889 0.0490573 0.0492035 0.0493486
0.0494925 0.0496353 0.0497454 0.0498657 0.0499853 0.0501041 0.0502221 0.0503403 0.0505877 0.05083
0.0510673 0.0512999 0.0515291 0.0515446 0.05156 0.0515754 0.0515908 0.0516062 0.0518128 0.0520148
0.0522125 0.0524059 0.0525932 0.0527046 0.0528142 0.0529222 0.0530289 0.0531627 0.0532371 0.0533109
0.0533839 0.0534564 0.0535277 0.053702 0.0538728 0.0540401 0.0542041 0.0543618 0.0545002 0.0546371
0.0547724 0.0549063 0.0551279 0.0551425 0.0551572 0.0551718 0.0551864 0.055203 0.0553345 0.0554655
0.055596 0.0557259 0.0558545 0.0559974 0.0561405 0.0562837 0.056427 0.0565703 0.0567136 0.0568572
0.0570012 0.0571455 0.0572902 0.0574353 0.0575807 0.0577265 0.0578726 0.0580191 0.0581659 0.0583131
0.0584605 0.0586083 0.0587564 0.0589048 0.0590536 0.0592026 0.059352 0.0595017 0.0596516 0.0598019
0.0599524 0.0601033 0.0602545 0.0603784 0.0605025 0.0606269 0.0607514 0.0608753 0.0609033 0.0609312
0.0609591 0.0609871 0.0610151 0.0611681 0.0613214 0.061475 0.061629 0.0617833 0.0619379 0.0620929
0.0622482 0.0624039 0.0625599 0.0627162 0.0628729 0.0630299 0.0631872 0.063345 0.063503 0.0636614
0.0638202 0.0639793 0.0641387 0.0642985 0.0644587 0.0646191 0.0647799 0.064941 0.0651025 0.0652643
0.0654264 0.0655888 0.0657515 0.0659146 0.066078 0.0662416 0.0664056 0.0665698 0.0667344 0.0668992
0.0670643 0.0672297 0.0673954 0.0675614 0.0677276 0.067894 0.0680608 0.0682277 0.068395 0.0685625
0.0687302 0.0688981 0.0690663 0.0692348 0.0694034 0.0695722 0.0697413 0.0699105 0.07008 0.0702497
0.0704196 0.0705896 0.0707599 0.0709303 0.0711009 0.0712717 0.0714426 0.0716137 0.071785 0.0719564
0.072128 0.0722997 0.0724716 0.0726436 0.0728158 0.072988 0.0731604 0.0733329 0.0735055 0.0736782
0.073851 0.074024 0.074197 0.0743701 0.0745433 0.0747165 0.0748898 0.0750632 0.0750688 0.0750744
0.0750801 0.0750857 0.0750913 0.0752592 0.075427 0.075595 0.0757629 0.0759309 0.0761046 0.0762782
0.0764519 0.0766256 0.0767992 0.0769729 0.0771466 0.0773203 0.0774939 0.0776675 0.0778411 0.0780147
0.0781882 0.0783616 0.0785351 0.0787085 0.0788818 0.0790551 0.0792284 0.0794016 0.0795747 0.0797478
0.0799208 0.0800938 0.0802668 0.0804397 0.0806126 0.0807855 0.0809583 0.0811312 0.081304 0.0814768
0.0816497 0.0818225 0.0819954 0.0821683 0.0823413 0.0825144 0.0826875 0.0828606 0.0830338 0.0832071
0.0833805 0.0835539 0.0837274 0.0839011 0.0840748 0.0842487 0.0844226 0.0845967 0.0847708 0.0849451
0.0851194 0.0852938 0.0854684 0.0856431 0.0858179 0.0859928 0.0861679 0.086343 0.0865182 0.0866935
0.0868689 0.0870445 0.0872201 0.0873958 0.0875717 0.0877476 0.0879237 0.0880998 0.0882761 0.0884524
0.0886288 0.0888053 0.0889818 0.0891585 0.0893353 0.0895122 0.0896892 0.0898663 0.0900434 0.0902206
0.0903979 0.0905753 0.0907528 0.0909304 0.0911081 0.0912858 0.0914637 0.0916416 0.0918196 0.0919977
0.0921759 0.0923541 0.0925324 0.0927109 0.0928894 0.093068 0.0932467 0.0934254 0.0936043 0.0937832
0.0939622 0.0941412 0.0943204 0.0944996 0.094679 0.0948584 0.0950379 0.0952175 0.0953971 0.0955769
0.0957567 0.0959366 0.0961166 0.0962967 0.0964769 0.0966572 0.0968376 0.0970181 0.0971988 0.0973796
0.0975605 0.0977416 0.0979228 0.0981046 0.0982867 0.0984688 0.0986512 0.0988337 0.0990154 0.0991972
0.0993791 0.099561 0.099743 0.0999254 0.100108 0.10029 0.100473 0.100655 0.100838 0.101021
0.101204 0.101387 0.101571 0.101755 0.101939 0.102124 0.102309 0.102494 0.10268 0.102866
0.103053 0.103241 0.103429 0.103618 0.103809 0.104 0.104192 0.104384 0.104578 0.104773
0.104969 0.105165 0.105363 0.105563 0.105764 0.105966 0.10617 0.106375 0.106582 0.10679
0.106999 0.107209 0.107421 0.107636 0.107852 0.10807 0.10829 0.108511 0.108734 0.108958
0.109184 0.109412 0.109641 0.109873 0.110107 0.110342 0.110579 0.110818 0.111058 0.1113
0.111544 0.111789 0.112036 0.112285 0.112535 0.112787 0.11304 0.113295 0.113551 0.113809
0.114068 0.114328 0.114589 0.114852 0.115116 0.115381 0.115647 0.115914 0.116182 0.116451
0.116721 0.116992 0.117263 0.117436 0.117609 0.117782 0.117955 0.118125 0.118226 0.118327
0.118429 0.118531 0.118632 0.118908 0.119184 0.119461 0.119738 0.120016 0.120294 0.120572
0.12085 0.121129 0.121408 0.121687 0.121966 0.122246 0.122526 0.122806 0.123008 0.123211
0.123413 0.123616 0.123808 0.123887 0.123967 0.124047 0.124126 0.124206 0.124486 0.124765
0.125045 0.125324 0.125604 0.125883 0.126162 0.12644 0.126718 0.126996 0.127274 0.127551
0.127828 0.128105 0.128381 0.128657 0.128933 0.129208 0.129483 0.129758 0.130032 0.130306
0.130579 0.130852 0.131125 0.131397 0.131669 0.131941 0.132213 0.132484 0.132755 0.133025
0.133294 0.133564 0.133833 0.134102 0.13437 0.134639 0.134907 0.135175 0.135442 0.135709
0.135976 0.136242 0.136508 0.136774 0.13704 0.137305 0.137571 0.137836 0.1381 0.138364
0.138629 0.138893 0.139156 0.139326 0.139495 0.139665 0.139834 0.140015 0.140106 0.140197
0.140287 0.140378 0.140469 0.14073 0.140992 0.141253 0.141513 0.141774 0.142034 0.142294
0.142553 0.142812 0.143071 0.143329 0.143588 0.143846 0.144104 0.144361 0.144617 0.144874
0.145131 0.145387 0.145642 0.145897 0.146153 0.146408 0.146663 0.146917 0.14717 0.147424
0.147678 0.147931 0.148184 0.148436 0.148689 0.148941 0.149194 0.149445 0.149696 0.149947
0.150198 0.150449 0.150699 0.150948 0.151198 0.151449 0.151699 0.151948 0.152196 0.152445
0.152693 0.152942 0.15319 0.153436 0.153684 0.153932 0.15418 0.154427 0.154672 0.154919
0.155165 0.155411 0.155658 0.155902 0.156147 0.156393 0.156638 0.156883 0.157126 0.157371
0.157615 0.157859 0.158103 0.158345 0.158588 0.158831 0.159075 0.159317 0.159558 0.1598
0.160042 0.160284 0.160526 0.160765 0.161006 0.161247 0.161487 0.161727 0.161965 0.162205
0.162444 0.162683 0.162921 0.163158 0.163396 0.163634 0.163871 0.164108 0.164343 0.16458
0.164815 0.165051 0.165286 0.165521 0.165756 0.16599 0.166223 0.166456 0.166474 0.166493
0.166511 0.16653 0.166548 0.166994 0.167439 0.167872 0.168292 0.168702 0.169507 0.170311
0.17111 0.171906 0.172695 0.174223 0.175748 0.177272 0.178796 0.180318 0.181826 0.183338
0.184848 0.186358 0.187867 0.190813 0.193761 0.196708 0.199654 0.202911 0.208915 0.21492
0.220925 0.22693 0.232934 0.238935 0.244938 0.250941 0.256944 0.262946 0.268947 0.274949
0.280951 0.286954 0.292956 0.298956 0.304958 0.31096 0.316962 0.322963 0.328964 0.334965
0.340967 0.346968 0.35297 0.35897 0.364972 0.370973 0.376974 0.382975 0.388976 0.394977
0.400978 0.406979 0.41298 0.41898 0.421411 0 7.3666e-05 0.000147337 0.000221012 0.000294692
0.000368377 0.000558953 0.000749562 0.000940204 0.00113088 0.00132159 0.00151233 0.0017031 0.00189391 0.00208476
0.00227564 0.00230867 0.0023417 0.00237473 0.00240776 0.00244051 0.00259848 0.00275647 0.00291449 0.00307253
0.0032306 0.0034217 0.00361284 0.00380402 0.00399524 0.00418649 0.00437779 0.00456913 0.00476051 0.00495193
0.0051434 0.00533491 0.00552646 0.00571806 0.00590971 0.0061014 0.00629313 0.00648492 0.00667675 0.00686863
0.00706056 0.00725254 0.00744458 0.00763666 0.00782879 0.00802098 0.00821322 0.00840552 0.00859787 0.00879028
0.00898275 0.00917527 0.00936785 0.0095605 0.0097532 0.00994596 0.0101388 0.0103317 0.0105246 0.0107177
0.0109107 0.0111039 0.0112971 0.0114904 0.0116838 0.0118772 0.0120707 0.0122643 0.0124579 0.0126517
0.0128455 0.0130393 0.0132333 0.0134274 0.0136215 0.0138157 0.01401 0.0142044 0.0143988 0.0145934
0.0147881 0.0149828 0.0151776 0.0153726 0.0155676 0.0157627 0.0159579 0.0161533 0.0163487 0.0165443
0.0167399 0.0169356 0.0171315 0.0173275 0.0175236 0.0177198 0.0179161 0.0181126 0.0183091 0.0185058
0.0187027 0.0188996 0.0190967 0.0192939 0.0194913 0.0196888 0.0198864 0.0200842 0.0202821 0.0204802
0.0206784 0.0208768 0.0210754 0.0212741 0.021473 0.021672 0.0218712 0.0220706 0.0222702 0.0224699
0.0226699 0.02287 0.0230703 0.0232708 0.0234715 0.0236724 0.0238735 0.0240749 0.0242765 0.0244782
0.0246802 0.0248825 0.0250849 0.0252877 0.0254906 0.0256939 0.0258973 0.0261011 0.0263051 0.0265093
0.0267139 0.0269188 0.0271239 0.0273294 0.0275351 0.0277412 0.0279476 0.0281543 0.0283614 0.0285688
0.0287765 0.0289847 0.0291931 0.029402 0.0296113 0.029821 0.0298556 0.0298903 0.0299249 0.0299596
0.0299936 0.0301695 0.0303457 0.0305221 0.0306989 0.0308761 0.0310883 0.0313011 0.0315144 0.0317282
0.0319425 0.0321573 0.0323727 0.0325887 0.0328053 0.0330224 0.0332401 0.0334585 0.0336776 0.0338973
0.0341178 0.0343389 0.0345607 0.0347834 0.0350069 0.0352311 0.0354561 0.0356821 0.035909 0.0361367
0.0363655 0.0365951 0.0368259 0.0370578 0.0372908 0.0375249 0.0377601 0.0379966 0.0382344 0.0384736
0.0387141 0.038956 0.0391995 0.0394446 0.0396915 0.0399399 0.04019 0.040442 0.0406959 0.040952
0.04121 0.0414702 0.0417328 0.041998 0.0422658 0.0425362 0.0428099 0.0430865 0.0433664 0.0436496
0.0439364 0.0442261 0.0445199 0.0448179 0.0451201 0.0454279 0.0457378 0.0460523 0.0463714 0.0466951
0.047029 0.0471878 0.0473479 0.0475092 0.0476714 0.0477489 0.0479535 0.0481594 0.0483666 0.0485749
0.0487916 0.0490931 0.0493967 0.0497019 0.0500062 0.0500966 0.0502153 0.0503337 0.0504518 0.0505695