# vtk DataFile Version 2.0
tracks
ASCII
DATASET POLYDATA
POINTS 20430 float
-1.001 1e-07 0.0011 -0.99955 1.00644e-07 0.00110002 -0.9981 1.01291e-07 0.00110005 -0.99665 1.01942e-07
0.00110007 -0.9952 1.02595e-07 0.0011001 -0.99375 1.03253e-07 0.00110014 -0.99 1.0494e-07 0.00110024
-0.98625 1.06648e-07 0.00110034 -0.9825 1.08356e-07 0.00110044 -0.97875 1.10091e-07 0.00110054 -0.975
1.11877e-07 0.00110068 -0.97125 1.13693e-07 0.00110083 -0.9675 1.15532e-07 0.00110098 -0.96375 1.17371e-07
0.00110113 -0.96 1.1925e-07 0.00110128 -0.95625 1.21207e-07 0.00110145 -0.9525 1.2323e-07 0.00110162
-0.94875 1.25265e-07 0.00110179 -0.945 1.27301e-07 0.00110196 -0.94125 1.2939e-07 0.00110213 -0.9375
1.3158e-07 0.00110231 -0.93375 1.33846e-07 0.00110249 -0.93 1.36139e-07 0.00110266 -0.92625 1.38433e-07
0.00110284 -0.9225 1.40764e-07 0.00110302 -0.91875 1.43164e-07 0.00110321 -0.915 1.45606e-07 0.00110339
-0.91125 1.48079e-07 0.00110358 -0.9075 1.50552e-07 0.00110376 -0.90375 1.52978e-07 0.00110395 -0.9
1.55312e-07 0.00110414 -0.89625 1.57522e-07 0.00110434 -0.8925 1.59551e-07 0.00110453 -0.88875 1.61367e-07
0.00110474 -0.885 1.63072e-07 0.00110494 -0.88125 1.64778e-07 0.00110515 -0.8775 1.66471e-07 0.00110535
-0.87375 1.68051e-07 0.00110556 -0.87 1.69502e-07 0.00110578 -0.86625 1.70887e-07 0.00110599 -0.8625
1.72272e-07 0.00110621 -0.85875 1.73644e-07 0.00110643 -0.855 1.75018e-07 0.00110665 -0.85125 1.7638e-07
0.00110688 -0.8475 1.77735e-07 0.00110711 -0.84375 1.79091e-07 0.00110734 -0.84 1.80406e-07 0.00110757
-0.83625 1.81818e-07 0.00110781 -0.8325 1.83285e-07 0.00110805 -0.82875 1.84781e-07 0.0011083 -0.825
1.86278e-07 0.00110854 -0.82125 1.87762e-07 0.00110879 -0.8175 1.89294e-07 0.00110904 -0.81375 1.90859e-07
0.0011093 -0.81 1.92442e-07 0.00110956 -0.80625 1.94025e-07 0.00110983 -0.8025 1.95597e-07 0.00111009
-0.79875 1.97186e-07 0.00111036 -0.795 1.98777e-07 0.00111063 -0.79125 2.00371e-07 0.00111091 -0.7875
2.01965e-07 0.00111119 -0.78375 2.03507e-07 0.00111148 -0.78 2.05116e-07 0.00111176 -0.77625 2.06737e-07
0.00111206 -0.7725 2.08365e-07 0.00111236 -0.76875 2.09993e-07 0.00111266 -0.765 2.11565e-07 0.00111296
-0.76125 2.1319e-07 0.00111326 -0.7575 2.14806e-07 0.00111358 -0.75375 2.16418e-07 0.0011139 -0.75
2.18031e-07 0.00111422 -0.74625 2.19632e-07 0.00111454 -0.7425 2.2127e-07 0.00111487 -0.73875 2.22929e-07
0.00111521 -0.735 2.246e-07 0.00111555 -0.73125 2.26271e-07 0.00111589 -0.7275 2.27931e-07 0.00111623
-0.72375 2.29706e-07 0.00111659 -0.72 2.3158e-07 0.00111695 -0.71625 2.33508e-07 0.00111732 -0.7125
2.35438e-07 0.00111768 -0.70875 2.37356e-07 0.00111805 -0.705 2.39439e-07 0.00111843 -0.70125 2.41668e-07
0.00111881 -0.6975 2.4398e-07 0.00111921 -0.69375 2.46294e-07 0.0011196 -0.69 2.48524e-07 0.00111999
-0.68625 2.51022e-07 0.0011204 -0.6825 2.53698e-07 0.00112081 -0.67875 2.56475e-07 0.00112123 -0.675
2.59253e-07 0.00112165 -0.67125 2.61939e-07 0.00112207 -0.6675 2.64864e-07 0.0011225 -0.66375 2.67926e-07
0.00112295 -0.66 2.71068e-07 0.0011234 -0.65625 2.74211e-07 0.00112385 -0.6525 2.77345e-07 0.0011243
-0.64875 2.80526e-07 0.00112476 -0.645 2.83733e-07 0.00112523 -0.64125 2.86957e-07 0.00112572 -0.6375
2.90183e-07 0.0011262 -0.63375 2.9329e-07 0.00112668 -0.63 2.9659e-07 0.00112718 -0.62625 2.9995e-07
0.00112769 -0.6225 3.03347e-07 0.0011282 -0.61875 3.06747e-07 0.00112872 -0.615 3.10011e-07 0.00112924
-0.61125 3.13498e-07 0.00112977 -0.6075 3.17058e-07 0.00113031 -0.60375 3.20661e-07 0.00113086 -0.6
3.24268e-07 0.00113142 -0.59625 3.2772e-07 0.00113197 -0.5925 3.31347e-07 0.00113252 -0.58875 3.34978e-07
0.00113308 -0.585 3.38631e-07 0.00113364 -0.58125 3.42318e-07 0.00113421 -0.5775 3.46031e-07 0.00113481
-0.57375 3.49773e-07 0.0011354 -0.57 3.53519e-07 0.00113599 -0.56625 3.57313e-07 0.00113659 -0.5625
3.61186e-07 0.00113721 -0.55875 3.65129e-07 0.00113784 -0.555 3.69103e-07 0.00113847 -0.55125 3.73081e-07
0.00113911 -0.5475 3.77183e-07 0.00113975 -0.54375 3.81488e-07 0.00114041 -0.54 3.85756e-07 0.00114108
-0.53625 3.90292e-07 0.00114176 -0.5325 3.94834e-07 0.00114244 -0.52875 3.99571e-07 0.00114312 -0.525
4.04625e-07 0.00114383 -0.52125 4.09995e-07 0.00114455 -0.5175 4.15403e-07 0.00114527 -0.51375 4.20818e-07
0.00114599 -0.51 4.26382e-07 0.00114672 -0.50625 4.32183e-07 0.00114746 -0.5025 4.3822e-07 0.00114823
-0.49875 4.44301e-07 0.00114899 -0.495 4.5039e-07 0.00114976 -0.49125 4.56529e-07 0.00115054 -0.4875
4.6274e-07 0.00115133 -0.48375 4.6864e-07 0.00115214 -0.48 4.74974e-07 0.00115295 -0.47625 4.81319e-07
0.00115376 -0.4725 4.87677e-07 0.00115458 -0.46875 4.94052e-07 0.00115542 -0.465 4.99988e-07 0.00115627
-0.46125 5.06437e-07 0.00115712 -0.4575 5.12898e-07 0.00115798 -0.45375 5.19478e-07 0.00115884 -0.45
5.26238e-07 0.00115972 -0.44625 5.32642e-07 0.00116061 -0.4425 5.39654e-07 0.0011615 -0.43875 5.46679e-07
0.0011624 -0.435 5.5387e-07 0.0011633 -0.43125 5.6131e-07 0.00116421 -0.4275 5.69022e-07 0.00116513
-0.42375 5.76798e-07 0.00116605 -0.42 5.8459e-07 0.00116698 -0.41625 5.92497e-07 0.00116791 -0.4125
6.0057e-07 0.00116884 -0.40875 6.08843e-07 0.00116978 -0.405 6.17189e-07 0.00117072 -0.40125 6.25552e-07
0.00117166 -0.3975 6.34054e-07 0.0011726 -0.39375 6.42753e-07 0.00117354 -0.39 6.50736e-07 0.00117447
-0.38625 6.5976e-07 0.00117541 -0.3825 6.68804e-07 0.00117634 -0.37875 6.78046e-07 0.00117727 -0.375
6.87567e-07 0.00117818 -0.37125 6.96271e-07 0.00117907 -0.3675 7.06228e-07 0.00117996 -0.36375 7.1621e-07
0.00118086 -0.36 7.26423e-07 0.00118173 -0.35625 7.36962e-07 0.00118257 -0.3525 7.47911e-07 0.00118337
-0.34875 7.58967e-07 0.00118417 -0.345 7.70052e-07 0.00118498 -0.34125 7.81395e-07 0.00118574 -0.3375
7.93093e-07 0.00118644 -0.33375 8.03535e-07 0.00118708 -0.33 8.15819e-07 0.00118772 -0.32625 8.28138e-07
0.00118835 -0.3225 8.40735e-07 0.00118892 -0.31875 8.53712e-07 0.00118939 -0.315 8.65105e-07 0.00118977
-0.31125 8.78742e-07 0.00119014 -0.3075 8.92418e-07 0.00119051 -0.30375 9.06416e-07 0.00119077 -0.3
9.2085e-07 0.00119088 -0.29625 9.33319e-07 0.00119084 -0.2925 9.48949e-07 0.00119057 -0.28875 9.65046e-07
0.00119008 -0.285 9.81489e-07 0.00118942 -0.28125 9.97971e-07 0.00118877 -0.2775 1.01474e-06 0.00118811
-0.27375 1.03205e-06 0.00118714 -0.27 1.04978e-06 0.00118583 -0.26625 1.06781e-06 0.0011843 -0.2625
1.08589e-06 0.00118277 -0.25875 1.10431e-06 0.00118124 -0.255 1.12318e-06 0.00117925 -0.25125 1.14233e-06
0.00117679 -0.2475 1.1617e-06 0.001174 -0.24375 1.1811e-06 0.00117123 -0.24 1.19606e-06 0.00116846
-0.23625 1.21626e-06 0.00116508 -0.2325 1.2367e-06 0.00116108 -0.22875 1.25731e-06 0.00115667 -0.225
1.27793e-06 0.00115229 -0.22125 1.29907e-06 0.00114793 -0.2175 1.3202e-06 0.00114273 -0.21375 1.34121e-06
0.0011367 -0.21 1.36212e-06 0.00113019 -0.20625 1.38303e-06 0.00112372 -0.2025 1.40455e-06 0.00111729
-0.19875 1.4256e-06 0.00110968 -0.195 1.44594e-06 0.00110091 -0.19125 1.46591e-06 0.00109156 -0.1875
1.48585e-06 0.00108231 -0.18375 1.49787e-06 0.00107315 -0.18 1.51754e-06 0.00106247 -0.17625 1.53627e-06
0.00105029 -0.1725 1.55458e-06 0.00103761 -0.16875 1.57286e-06 0.00102509 -0.165 1.58205e-06 0.00101275
-0.16125 1.59943e-06 0.000998614 -0.1575 1.61519e-06 0.000982735 -0.15375 1.6305e-06 0.000966609 -0.15
1.64579e-06 0.000950776 -0.14625 1.6509e-06 0.000935229 -0.1425 1.66545e-06 0.000917657 -0.13875 1.67859e-06
0.000898123 -0.135 1.69161e-06 0.000878835 -0.13125 1.70464e-06 0.000859998 -0.1275 1.71848e-06 0.000841597
-0.12375 1.7287e-06 0.000821094 -0.12 1.73591e-06 0.00079889 -0.11625 1.74327e-06 0.000777325 -0.1125
1.75078e-06 0.000756378 -0.10875 1.75914e-06 0.000736027 -0.105 1.76462e-06 0.000713604 -0.10125 1.76852e-06
0.000690179 -0.0975 1.7727e-06 0.000667548 -0.0937499 1.77716e-06 0.000645685 -0.0899999 1.76979e-06 0.000624557
-0.0862499 1.76688e-06 0.00060183 -0.0824999 1.76127e-06 0.000579009 -0.0787499 1.75628e-06 0.000557059 -0.0749999
1.7519e-06 0.000535947 -0.0712499 1.73624e-06 0.000515636 -0.0674999 1.71632e-06 0.000495176 -0.0637499 1.69474e-06
0.000475361 -0.0599999 1.67433e-06 0.000456327 -0.0562499 1.65504e-06 0.000438044 -0.0524999 1.63696e-06 0.000420479
-0.0487498 1.60212e-06 0.000405267 -0.0449998 1.56865e-06 0.000390588 -0.0412498 1.53651e-06 0.000376425 -0.0374998
1.50567e-06 0.00036276 -0.0337498 1.46663e-06 0.000349576 -0.0299998 1.41891e-06 0.00034079 -0.0262498 1.37228e-06
0.000332216 -0.0224998 1.32672e-06 0.00032385 -0.0187499 1.2822e-06 0.000315688 -0.0149999 1.23112e-06 0.000307723
-0.0112499 1.1572e-06 0.000304106 -0.0074999 1.08381e-06 0.000300529 -0.00374991 1.01091e-06 0.000296993 6.11905e-08
9.38518e-07 0.000293497 0.00375005 8.6639e-07 0.000290041 0.00750005 7.94272e-07 0.000286626 0.01125 7.22686e-07
0.000283249 0.015 6.51624e-07 0.00027991 0.01875 5.81081e-07 0.00027661 0.0225 4.79386e-07 0.000275448
0.02625 3.77406e-07 0.00027429 0.03 2.75429e-07 0.000273138 0.03375 1.73451e-07 0.00027199 0.0375
7.14722e-08 0.000270846 0.0379106 5.71765e-08 0.000270784 0.0383212 4.2874e-08 0.000270722 0.0387317 2.85691e-08
0.00027066 0.0391423 1.42618e-08 0.000270598 0.0395517 -6.23751e-12 0.000270536 0.0428913 -1.16422e-07 0.000270031
0.046231 -2.33017e-07 0.000269527 0.0495707 -3.49794e-07 0.000269024 0.0529103 -4.66754e-07 0.000268522 0.05625
-5.83896e-07 0.000268021 0.06 -7.49938e-07 0.000267755 0.06375 -9.16235e-07 0.00026749 0.0675 -1.08293e-06
0.000267225 0.07125 -1.25002e-06 0.000266961 0.075 -1.41752e-06 0.000266696 0.07875 -1.61921e-06 0.000266574
0.0825 -1.82575e-06 0.000266451 0.08625 -2.03283e-06 0.000266328 0.09 -2.24046e-06 0.000266206 0.09375
-2.44863e-06 0.000266084 0.0975 -2.68931e-06 0.000266009 0.10125 -2.93788e-06 0.000265936 0.105 -3.18711e-06
0.000265862 0.10875 -3.43701e-06 0.000265789 0.1125 -3.68759e-06 0.000265715 0.11625 -3.97554e-06 0.000265653
0.12 -4.26458e-06 0.000265591 0.12375 -4.55443e-06 0.00026553 0.1275 -4.84508e-06 0.000265469 0.13125
-5.13654e-06 0.000265407 0.135 -5.45967e-06 0.000265339 0.13875 -5.78427e-06 0.000265272 0.1425 -6.10981e-06
[...]
POINT_DATA 20430
FIELD attributes 3
age 1 20430 float
0 7.30483e-05 0.0001461 0.000219156 0.000292216 0.000365279 0.000554246 0.000743213 0.00093218 0.00112116 0.00131018
0.00149923 0.00168828 0.00187733 0.0020664 0.00225551 0.00244465 0.00263379 0.00282293 0.00301209 0.00320128
0.00339052 0.00357975 0.00376899 0.00395825 0.00414754 0.00433688 0.00452622 0.00471556 0.00490492 0.00509433
0.00528377 0.00547327 0.00566281 0.00585238 0.00604194 0.00623151 0.00642112 0.00661079 0.00680048 0.00699017
0.00717987 0.00736961 0.00755941 0.00774924 0.00793906 0.00812889 0.00831878 0.00850872 0.00869869 0.00888867
0.00907864 0.00926868 0.00945877 0.0096489 0.00983903 0.0100292 0.0102194 0.0104096 0.0105999 0.0107902
0.0109805 0.0111709 0.0113613 0.0115518 0.0117423 0.0119328 0.0121233 0.012314 0.0125047 0.0126953
0.012886 0.0130768 0.0132676 0.0134585 0.0136494 0.0138403 0.0140313 0.0142223 0.0144135 0.0146046
0.0147957 0.0149869 0.0151782 0.0153696 0.015561 0.0157524 0.0159438 0.0161354 0.0163271 0.0165187
0.0167103 0.0169021 0.017094 0.0172859 0.0174778 0.0176698 0.0178618 0.018054 0.0182463 0.0184385
0.0186308 0.0188232 0.0190157 0.0192083 0.0194009 0.0195935 0.0197863 0.0199792 0.0201722 0.0203652
0.0205582 0.0207511 0.0209441 0.0211372 0.0213305 0.0215239 0.0217173 0.0219107 0.0221042 0.0222979
0.0224918 0.0226857 0.0228795 0.0230735 0.0232677 0.023462 0.0236564 0.0238508 0.0240453 0.02424
0.0244349 0.0246298 0.0248247 0.0250198 0.0252151 0.0254106 0.0256061 0.0258017 0.0259974 0.0261933
0.0263895 0.0265857 0.0267819 0.0269782 0.0271749 0.0273718 0.0275687 0.0277657 0.0279628 0.0281602
0.0283579 0.0285557 0.0287534 0.0289514 0.0291497 0.0293483 0.029547 0.0297456 0.0299445 0.0301437
0.0303433 0.030543 0.0307426 0.0309425 0.0311428 0.0313435 0.0315442 0.031745 0.031946 0.0321474
0.0323493 0.0325512 0.0327532 0.0329554 0.0331581 0.0333614 0.0335646 0.0337678 0.0339714 0.0341755
0.0343801 0.0345847 0.0347894 0.0349944 0.0352 0.0354061 0.0356123 0.0358184 0.036025 0.0362321
0.0364399 0.0366482 0.0368571 0.0370664 0.0372758 0.0374851 0.037695 0.0379055 0.0381164 0.0383273
0.0385381 0.0387495 0.0389614 0.0391737 0.039386 0.0395982 0.0398108 0.0400239 0.0402373 0.0404505
0.0406636 0.0408771 0.0410908 0.0413047 0.0415184 0.0417319 0.0419455 0.0421591 0.0423726 0.0425858
0.0427988 0.0430114 0.0432236 0.0434355 0.043647 0.0438581 0.0440685 0.0442779 0.0444868 0.0446953
0.0449035 0.0451101 0.0453153 0.04552 0.0457243 0.0459282 0.0461299 0.0463298 0.0465292 0.0467284
0.0469272 0.0471232 0.0473174 0.0475114 0.0477052 0.0478987 0.0480889 0.0482777 0.0484665 0.0486553
0.048844 0.049029 0.0492135 0.0493981 0.0495829 0.0497678 0.0499493 0.050131 0.0503129 0.050495
0.0506773 0.0508575 0.0510379 0.0512185 0.0513992 0.0515801 0.0517603 0.0519406 0.0521209 0.0523013
0.0524818 0.0526624 0.0528431 0.0530238 0.0532047 0.0533856 0.0535665 0.0537475 0.0539285 0.0541095
0.0541293 0.0541492 0.054169 0.0541889 0.0542087 0.0543702 0.0545317 0.0546932 0.0548547 0.0550162
0.0551979 0.0553796 0.0555612 0.0557429 0.0559246 0.0561066 0.0562886 0.0564707 0.0566527 0.0568347
0.057017 0.0571993 0.0573816 0.0575639 0.0577462 0.0579288 0.0581114 0.058294 0.0584766 0.0586592
0.0588421 0.059025 0.0592079 0.0593908 0.0595736 0.0597568 0.05994 0.0601232 0.0603064 0.0604896
0.0606731 0.0608566 0.0610401 0.0612236 0.0614071 0.0615909 0.0617747 0.0619585 0.0621423 0.0623261
0.0625102 0.0626942 0.0628783 0.0630624 0.0632465 0.0634309 0.0636152 0.0637995 0.0639839 0.0641682
0.0643529 0.0645375 0.0647221 0.0649066 0.0650912 0.0652761 0.0654609 0.0656457 0.0658306 0.0660154
0.0662004 0.0663855 0.0665705 0.0667555 0.0669405 0.0671258 0.0673111 0.0674965 0.0676818 0.0678672
0.0680526 0.0682381 0.0684236 0.0686091 0.0687946 0.0689801 0.0691658 0.0693514 0.069537 0.0697227
0.0699083 0.0700941 0.0702798 0.0704656 0.0706513 0.0708371 0.0710229 0.0712088 0.0713946 0.0715804
0.0717663 0.0719522 0.0721381 0.0723241 0.07251 0.0726959 0.0728819 0.0730679 0.0732539 0.0734399
0.0736259 0.0738119 0.0739979 0.0741839 0.07437 0.074556 0.0747421 0.0749281 0.0751142 0.0753003
0.0754863 0.0756724 0.0758585 0.0760445 0.0762306 0.0764167 0.0766027 0.0767888 0.0769748 0.0771609
0.077347 0.077533 0.077719 0.077905 0.0780911 0.0782771 0.0784631 0.0786491 0.0788351 0.0790211
0.0792072 0.0793932 0.0795791 0.0797651 0.0799511 0.0801371 0.0803231 0.0805091 0.0806951 0.0808811
0.0810671 0.0812531 0.0814391 0.0816251 0.0818111 0.0819972 0.0821832 0.0823692 0.0825552 0.0827413
0.0829274 0.0831134 0.0832995 0.0834856 0.0836717 0.0838579 0.084044 0.0842302 0.0844163 0.0846025
0.0847888 0.084975 0.0851613 0.0853475 0.0855338 0.0857201 0.0859064 0.0860928 0.0862791 0.0864655
0.0866519 0.0868383 0.0870248 0.0872112 0.0873976 0.0875841 0.0877707 0.0879572 0.0881437 0.0883302
0.0885168 0.0887034 0.08889 0.0890766 0.0892632 0.0894498 0.0896365 0.0898231 0.0900098 0.0901965
0.0903832 0.0905699 0.0907567 0.0909434 0.0911301 0.0913169 0.0915037 0.0916905 0.0918773 0.0920641
0.0922509 0.0924377 0.0926246 0.0928114 0.0929982 0.0931851 0.093372 0.0935589 0.0937458 0.0939327
0.0941196 0.0943065 0.0944934 0.0946804 0.0948673 0.0950543 0.0952412 0.0954282 0.0956152 0.0958021
0.0959892 0.0961762 0.0963632 0.0965502 0.0967372 0.0969243 0.0971114 0.0972985 0.0974856 0.0976728
0.0978599 0.0980471 0.0982344 0.0984216 0.0986089 0.0987961 0.0989836 0.099171 0.0993585 0.099546
0.0997334 0.0999213 0.100109 0.100297 0.100485 0.100673 0.100861 0.10105 0.101239 0.101427
0.101616 0.101806 0.101996 0.102185 0.102375 0.102565 0.102757 0.102948 0.10314 0.103331
0.103523 0.103717 0.10391 0.104103 0.104297 0.104491 0.104686 0.10488 0.105075 0.10527
0.105465 0.105661 0.105857 0.106053 0.106248 0.106444 0.10664 0.106836 0.107032 0.107227
0.107423 0.107619 0.107814 0.108009 0.108205 0.1084 0.108595 0.10879 0.108984 0.109179
0.109373 0.109567 0.109761 0.109955 0.110148 0.110342 0.110535 0.110728 0.11092 0.111113
0.111305 0.111498 0.11169 0.111881 0.112073 0.112265 0.112456 0.112648 0.112839 0.11303
0.113221 0.113412 0.113603 0.113794 0.113984 0.114174 0.114365 0.114555 0.114745 0.114935
0.115125 0.115314 0.115504 0.115694 0.115883 0.116073 0.116262 0.116451 0.116641 0.11683
0.117019 0.117208 0.117397 0.117586 0.117775 0.117964 0.118153 0.118341 0.11853 0.118719
0.118908 0.119096 0.119285 0.119474 0.119662 0.119851 0.120039 0.120228 0.120416 0.120605
0.120793 0.120981 0.12117 0.121358 0.121547 0.121735 0.121923 0.122111 0.1223 0.122488
0.122676 0.122865 0.123053 0.123241 0.123429 0.123617 0.123806 0.123994 0.124182 0.12437
0.124558 0.124746 0.124934 0.125123 0.125311 0.125499 0.125687 0.125875 0.126063 0.126251
0.126439 0.126627 0.126815 0.127003 0.127191 0.127379 0.127567 0.127755 0.127943 0.128131
0.128319 0.128507 0.128695 0.128883 0.129071 0.129259 0.129447 0.129635 0.129823 0.130011
0.130199 0.130386 0.130574 0.130762 0.13095 0.131138 0.131326 0.131514 0.131702 0.13189
0.132077 0.132265 0.132453 0.132641 0.132829 0.133017 0.133205 0.133392 0.13358 0.133768
0.133956 0.134144 0.134331 0.134519 0.134707 0.134895 0.135083 0.13527 0.135458 0.135646
0.135834 0.136022 0.136209 0.136397 0.136585 0.136773 0.13696 0.137148 0.137336 0.137524
0.137711 0.137899 0.138087 0.138275 0.138462 0.13865 0.138838 0.139025 0.139213 0.139401
0.139589 0.139776 0.139964 0.140152 0.140339 0.140527 0.140715 0.140902 0.14109 0.141278
0.141465 0.141653 0.141841 0.142028 0.142216 0.142404 0.142591 0.142779 0.142967 0.143154
0.143342 0.14353 0.143717 0.143905 0.144092 0.14428 0.144468 0.144655 0.144843 0.145031
0.145218 0.145406 0.145593 0.145781 0.145969 0.146156 0.146344 0.146531 0.146719 0.146907
0.147094 0.147282 0.147469 0.147657 0.147845 0.148032 0.14822 0.148407 0.148595 0.148783
0.14897 0.149158 0.149345 0.149533 0.149721 0.149908 0.150096 0.150283 0.150471 0.150658
0.150846 0.151034 0.151221 0.151409 0.151596 0.151971 0.152347 0.152722 0.153097 0.153472
0.154222 0.154972 0.155722 0.156473 0.157223 0.158723 0.160223 0.161723 0.163223 0.164723
0.166223 0.167723 0.169224 0.170724 0.172224 0.175224 0.178224 0.181224 0.184224 0.187224
0.193224 0.199224 0.205224 0.211224 0.217224 0.223224 0.229224 0.235225 0.241225 0.247225
0.253225 0.259225 0.265225 0.271225 0.277225 0.283225 0.289225 0.295225 0.301225 0.307225
0.313225 0.319225 0.325225 0.331225 0.337225 0.343225 0.349225 0.355225 0.361225 0.367225
0.373225 0.379225 0.385225 0.391225 0.397225 0.403226 0.409243 0.415279 0.421333 0.427405
0 7.37663e-05 0.000147537 0.000221311 0.00029509 0.000368873 0.000559703 0.000750569 0.00094147 0.00113241
0.00132338 0.00151438 0.00170543 0.00189651 0.00208763 0.00227878 0.00246997 0.0026612 0.00285248 0.00304379
0.00323514 0.00342652 0.00361796 0.00380943 0.00400095 0.0041925 0.00438411 0.00457575 0.00476744 0.00495918
0.00515096 0.00534279 0.00553466 0.00572659 0.00591856 0.00611058 0.00630265 0.00649478 0.00668695 0.00687918
0.00707146 0.00726379 0.00745617 0.00764862 0.00784111 0.00803367 0.00822628 0.00841895 0.00861168 0.00880447
0.00899732 0.00919023 0.00938321 0.00957625 0.00976936 0.00996253 0.0101558 0.0103491 0.0105424 0.0107359
0.0109294 0.011123 0.0113166 0.0115104 0.0117042 0.0118981 0.012092 0.0122861 0.0124802 0.0126744
0.0128687 0.0130631 0.0132575 0.0134521 0.0136467 0.0138414 0.0140362 0.0142311 0.0144261 0.0146212
0.0148164 0.0150117 0.0152071 0.0154026 0.0155982 0.0157939 0.0159897 0.0161856 0.0163816 0.0165777
0.016774 0.0169703 0.0171668 0.0173634 0.0175602 0.017757 0.017954 0.0181511 0.0183483 0.0185457
0.0187432 0.0189408 0.0191386 0.0193365 0.0195345 0.0197328 0.0199311 0.0201296 0.0203283 0.0205271
0.0207261 0.0209252 0.0211245 0.021324 0.0215237 0.0217235 0.0219235 0.0221237 0.0223241 0.0225246
0.0227254 0.0229264 0.0231275 0.0233289 0.0235304 0.0237322 0.0239342 0.0241364 0.0243389 0.0245415
0.0247444 0.0249475 0.0251509 0.0253546 0.0255584 0.0257626 0.025967 0.0261716 0.0263766 0.0265818
0.0267873 0.0269931 0.0271992 0.0274056 0.0276124 0.0278194 0.0280267 0.0282344 0.0284425 0.0286509
0.0288596 0.0290687 0.0292782 0.0294881 0.0296983 0.029909 0.03012 0.0303315 0.0305434 0.0307558
0.0309686 0.0311818 0.0313955 0.0316097 0.0318245 0.0320397 0.0322554 0.0324717 0.0326885 0.0329059
0.0331238 0.0333424 0.0335615 0.0337812 0.0340016 0.0342226 0.0344443 0.0346667 0.0348898 0.0351136
0.0353381 0.0355634 0.0357894 0.0360162 0.0362439 0.0364723 0.0367016 0.0369318 0.0371628 0.0373949
0.0376278 0.0378616 0.0380964 0.0383322 0.038569 0.0388069 0.0390458 0.0392859 0.0395271 0.0397695
0.040013 0.0402576 0.0405034 0.0407505 0.0409988 0.0412484 0.0414993 0.0417516 0.0420052 0.0422602
0.0425166 0.0427742 0.0430331 0.0432932 0.0435547 0.043818 0.0440825 0.0443483 0.0446154 0.0448836
0.0451538 0.0454245 0.0456959 0.045968 0.0462406 0.0465158 0.0466567 0.0467976 0.0469384 0.0470791
0.0471624 0.0473082 0.0474539 0.0475995 0.0477449 0.0478912 0.0481658 0.0484386 0.0487097 0.0489788
0.0492513 0.0494078 0.049563 0.0497169 0.0498696 0.049985 0.0501 0.0502143 0.0503279 0.0504408
0.0505539 0.0508052 0.0510512 0.0512921 0.0515282 0.0517609 0.0517801 0.0517993 0.0518184 0.0518375
0.0518567 0.0520625 0.0522638 0.0524607 0.0526535 0.0528216 0.0528252 0.0528289 0.0528326 0.0528363
0.0528399 0.0529549 0.0530681 0.0531796 0.0532896 0.0534282 0.0535015 0.0535741 0.0536461 0.0537175
0.0537878 0.0539646 0.0541378 0.0543075 0.0544739 0.0546337 0.0547746 0.0549139 0.0550517 0.0551879
0.0554105 0.0554257 0.0554408 0.0554559 0.0554711 0.0554883 0.0556213 0.0557538 0.0558858 0.0560172
0.0561474 0.0562924 0.0564375 0.0565829 0.0567283 0.0568737 0.0570193 0.0571651 0.0573112 0.0574578
0.0576047 0.057752 0.0578996 0.0580477 0.0581962 0.058345 0.0584942 0.0586436 0.0587935 0.0589437
0.0590942 0.0592451 0.0593964 0.059548 0.0596999 0.0598522 0.0600048 0.0601577 0.0603109 0.0604645
0.0606184 0.0607726 0.0609272 0.0610821 0.0612374 0.061393 0.061549 0.0617053 0.061862 0.062019
0.0621764 0.0623341 0.0624923 0.0626508 0.0628097 0.062969 0.0631286 0.0632886 0.063449 0.0636098
0.0637709 0.0639325 0.0640944 0.0642567 0.0644194 0.0645824 0.0647459 0.0649097 0.0650738 0.0652383
0.0654032 0.0655684 0.065734 0.0659 0.0660663 0.0662329 0.0663999 0.0665672 0.0667348 0.0669028
0.0670711 0.0672397 0.0674086 0.0675778 0.0677474 0.0679172 0.0680873 0.0682577 0.0684283 0.0685993
0.0687705 0.068942 0.0691138 0.0692859 0.0694582 0.0696307 0.0698035 0.0699765 0.0701498 0.0703233
0.070497 0.070671 0.0708452 0.0710196 0.0711943 0.0713691 0.0715442 0.0717194 0.0718948 0.0720704
0.0722462 0.0724223 0.0725985 0.0727749 0.0729514 0.0731282 0.0733051 0.0734821 0.0736593 0.0738366
0.0740142 0.0741919 0.0743697 0.0745477 0.0747258 0.074904 0.0750824 0.0752608 0.0754393 0.075618
0.0757968 0.0759757 0.0761547 0.0763338 0.076513 0.0766922 0.0768715 0.0770509 0.0772303 0.0774097
0.0775892 0.0777688 0.0779484 0.0781281 0.0783077 0.0784874 0.0786671 0.0788468 0.0790265 0.0792061
0.0793858 0.0795655 0.0797452 0.0799249 0.0801045 0.0802842 0.0804638 0.0806434 0.080823 0.0810026
0.0811822 0.0813619 0.0815416 0.0817213 0.081901 0.0820808 0.0822606 0.0824404 0.0826203 0.0828003
0.0829804 0.0831606 0.0833409 0.0835214 0.0837019 0.0838826 0.0840635 0.0842444 0.0844255 0.0846068
0.0847883 0.0849699 0.0851517 0.0853337 0.0855159 0.0856983 0.0858809 0.0860636 0.0862465 0.0864297
0.086613 0.0867965 0.0869803 0.0871642 0.0873484 0.0875327 0.0877172 0.087902 0.0880868 0.0882719
0.0884572 0.0886427 0.0888283 0.0890142 0.0892002 0.0893864 0.0895728 0.0897593 0.089946 0.0901329
0.0903199 0.0905072 0.0906945 0.0908821 0.0910698 0.0912576 0.0914457 0.0916338 0.0918221 0.0920105
0.0921991 0.0923878 0.0925766 0.0927655 0.0929545 0.0931437 0.093333 0.0935223 0.0937118 0.0939014
0.0940911 0.0942809 0.0944708 0.0946608 0.0948509 0.0950411 0.0952314 0.0954218 0.0956123 0.0958029
0.0959936 0.0961843 0.0963751 0.096566 0.0967569 0.096948 0.0971391 0.0973303 0.0975217 0.0977131
0.0979046 0.0980962 0.0982878 0.0984796 0.0986715 0.0988635 0.0990558 0.0992482 0.0994409 0.0996339
0.099827 0.100021 0.100215 0.100409 0.100604 0.1008 0.100995 0.101191 0.101387 0.101584
0.101783 0.101982 0.102182 0.102385 0.102588 0.102794 0.103002 0.103212 0.103425 0.10364
0.103859 0.104081 0.104307 0.104536 0.10477 0.105008 0.10525 0.105496 0.105747 0.106002
0.106262 0.106516 0.106773 0.107035 0.107301 0.107632 0.107675 0.107718 0.107762 0.107805
0.107859 0.108104 0.108353 0.108604 0.108859 0.109117 0.109427 0.109741 0.110058 0.110379
0.110703 0.110853 0.111003 0.111154 0.111305 0.111334 0.111539 0.111744 0.11195 0.112156
0.112364 0.112701 0.113038 0.113375 0.113711 0.114048 0.114384 0.114717 0.115049 0.115379
0.115707 0.116034 0.116357 0.116678 0.116997 0.117313 0.117472 0.11763 0.117788 0.117945
0.11811 0.11826 0.118409 0.118558 0.118706 0.118853 0.119154 0.119452 0.119748 0.120041
0.120332 0.12062 0.120907 0.121191 0.121473 0.121753 0.12203 0.122306 0.122581 0.122853
0.123123 0.123392 0.12366 0.123926 0.12419 0.124453 0.124486 0.124519 0.124551 0.124584
0.124618 0.124846 0.125073 0.1253 0.125525 0.12575 0.126006 0.12626 0.126514 0.126767
0.127019 0.12727 0.12752 0.127769 0.128018 0.128266 0.128513 0.128759 0.129005 0.12925
0.129494 0.129738 0.129981 0.130224 0.130466 0.130708 0.130949 0.131189 0.13143 0.13167
0.131909 0.132149 0.132387 0.132626 0.132864 0.133101 0.133339 0.133576 0.133813 0.13405
0.134286 0.134522 0.134758 0.134993 0.135229 0.135464 0.135698 0.135933 0.136167 0.136402
0.136636 0.136869 0.137102 0.137335 0.137568 0.137801 0.138033 0.138265 0.138497 0.138729
0.13896 0.139191 0.139422 0.139653 0.139883 0.140113 0.140343 0.140572 0.140801 0.14103
0.141258 0.141304 0.14135 0.141395 0.141441 0.141489 0.14167 0.141852 0.142033 0.142214
0.142394 0.142617 0.142842 0.143065 0.143287 0.143508 0.143727 0.143947 0.144166 0.144384
0.144602 0.144817 0.145033 0.145248 0.145463 0.145677 0.145889 0.146102 0.146314 0.146526
0.146737 0.146946 0.147156 0.147366 0.147575 0.147784 0.14799 0.148198 0.148405 0.148612
0.148819 0.149023 0.149229 0.149434 0.149639 0.149843 0.150046 0.15025 0.150453 0.150656
0.150859 0.151061 0.151263 0.151465 0.151666 0.151868 0.152068 0.152268 0.152469 0.152669
0.152869 0.153068 0.153267 0.153467 0.153666 0.153865 0.154062 0.154261 0.154459 0.154657
0.154855 0.155052 0.155249 0.155446 0.155643 0.15584 0.156036 0.156233 0.15643 0.156626
0.156822 0.157017 0.157213 0.157409 0.157605 0.157801 0.157995 0.15819 0.158386 0.158581
0.158776 0.15897 0.159164 0.159359 0.159553 0.159748 0.159941 0.160135 0.160329 0.160523
0.160717 0.16091 0.161104 0.161298 0.161491 0.161685 0.161877 0.16207 0.162264 0.162457
0.16265 0.162842 0.163035 0.163228 0.163421 0.163614 0.163806 0.163998 0.164191 0.164383
0.164576 0.164768 0.16496 0.165152 0.165344 0.165536 0.16592 0.166303 0.166687 0.16707
0.167452 0.168211 0.16897 0.169729 0.170489 0.171248 0.172756 0.174261 0.175766 0.177271
0.178776 0.180279 0.181783 0.183287 0.184791 0.186295 0.189301 0.192307 0.195313 0.198319
0.201325 0.20733 0.213334 0.219338 0.225342 0.231347 0.237348 0.24335 0.249352 0.255354
0.261356 0.267358 0.27336 0.279361 0.285363 0.291365 0.297366 0.303368 0.30937 0.315372
0.321374 0.327375 0.333377 0.339378 0.34538 0.351382 0.357383 0.363385 0.369387 0.375389
0.38139 0.387392 0.393393 0.399395 0.405397 0.411398 0.4174 0.423419 0.429456 0.435511
0.441585 0 7.37432e-05 0.000147491 0.000221244 0.000295002 0.000368765 0.000559544 0.000750357 0.000941205
0.00113209 0.001323 0.00151396 0.00170494 0.00189597 0.00208703 0.00227812 0.00246926 0.00266043 0.00285164
0.00304289 0.00323418 0.0034255 0.00361687 0.00380828 0.00399974 0.00419123 0.00438276 0.00457434 0.00476597
0.00495764 0.00514935 0.00534111 0.00553291 0.00572477 0.00591667 0.00610862 0.00630061 0.00649266 0.00668476
0.00687691 0.00706911 0.00726137 0.00745367 0.00764604 0.00783845 0.00803093 0.00822345 0.00841604 0.00860869
0.00880139 0.00899416 0.00918698 0.00937987 0.00957282 0.00976583 0.00995891 0.0101521 0.0103453 0.0105385
0.0107319 0.0109253 0.0111188 0.0113123 0.011506 0.0116997 0.0118935 0.0120873 0.0122813 0.0124753
0.0126694 0.0128635 0.0130578 0.0132521 0.0134466 0.0136411 0.0138357 0.0140304 0.0142251 0.01442
0.014615 0.01481 0.0150052 0.0152005 0.0153958 0.0155913 0.0157868 0.0159825 0.0161783 0.0163741
0.0165701 0.0167662 0.0169624 0.0171588 0.0173552 0.0175518 0.0177485 0.0179453 0.0181422 0.0183393
0.0185365 0.0187338 0.0189313 0.0191289 0.0193267 0.0195246 0.0197226 0.0199208 0.0201191 0.0203176
0.0205162 0.020715 0.020914 0.0211131 0.0213124 0.0215119 0.0217115 0.0219113 0.0221113 0.0223115
0.0225119 0.0227125 0.0229132 0.0231142 0.0233154 0.0235168 0.0237184 0.0239202 0.0241222 0.0243245
0.024527 0.0247298 0.0249327 0.025136 0.0253395 0.0255433 0.0257474 0.0259517 0.0261563 0.0263612
0.0265664 0.0267719 0.0269777 0.0271839 0.0273904 0.0275972 0.0278044 0.0280119 0.0282198 0.0284281
0.0286367 0.0288458 0.0290552 0.029265 0.0294753 0.029686 0.0298971 0.0299082 0.0299192 0.0299303
0.0299414 0.0299524 0.030153 0.030354 0.0305555 0.0307574 0.0309597 0.0311737 0.0313881 0.0316031
0.0318187 0.0320347 0.0322514 0.0324686 0.0326864 0.0329048 0.0331239 0.0333435 0.0335639 0.0337849
0.0340066 0.0342291 0.0344522 0.0346762 0.0349009 0.0351265 0.0353529 0.0355801 0.0358082 0.0360373
0.0362673 0.0364983 0.0367303 0.0369634 0.0371976 0.037433 0.0376695 0.0379072 0.0381462 0.0383865
0.0386282 0.0388713 0.0391158 0.039362 0.0396098 0.0398594 0.0401106 0.0403635 0.0406184 0.0408753
0.0411344 0.0413955 0.0416588 0.0419246 0.0421931 0.0424643 0.0427381 0.0430153 0.0432956 0.0435793
0.0438664 0.0441572 0.0444509 0.0447489 0.0450512 0.0453579 0.0456703 0.0459851 0.0463047 0.0466291
0.0469583 0.047298 0.0475203 0.0477453 0.0479725 0.0482016 0.0482735 0.0484355 0.0485983 0.0487619
0.0489261 0.0490957 0.0494457 0.0497985 0.0501536 0.0505072 0.0505852 0.0506761 0.0507668 0.0508573
0.0509476 0.0510406 0.0512702 0.051497 0.0517208 0.0519416 0.052076 0.0522627 0.0524465 0.0526273
0.0528052 0.0529925 0.053036 0.0530794 0.0531226 0.0531656 0.0532064 0.0534073 0.0536024 0.0537926