# vtk DataFile Version 2.0
tracks
ASCII
DATASET POLYDATA
POINTS 19587 float
-1.001 1e-07 0.0011 -0.99955 9.8542e-08 0.00110002 -0.9981 9.70793e-08 0.00110004 -0.99665 9.5612e-08
0.00110007 -0.9952 9.41401e-08 0.0011001 -0.99375 9.26634e-08 0.00110014 -0.99 8.88145e-08 0.00110023
-0.98625 8.49817e-08 0.00110033 -0.9825 8.11479e-08 0.00110043 -0.97875 7.7289e-08 0.00110054 -0.975
7.33818e-08 0.00110067 -0.97125 6.94128e-08 0.00110082 -0.9675 6.54562e-08 0.00110097 -0.96375 6.14983e-08
0.00110112 -0.96 5.7516e-08 0.00110127 -0.95625 5.34872e-08 0.00110143 -0.9525 4.94073e-08 0.0011016
-0.94875 4.53309e-08 0.00110177 -0.945 4.1253e-08 0.00110194 -0.94125 3.71494e-08 0.00110211 -0.9375
3.29969e-08 0.00110228 -0.93375 2.87893e-08 0.00110246 -0.93 2.45865e-08 0.00110264 -0.92625 2.03823e-08
0.00110281 -0.9225 1.61534e-08 0.00110299 -0.91875 1.18779e-08 0.00110317 -0.91669 9.50235e-09 0.00110327
-0.91463 7.12758e-09 0.00110338 -0.91257 4.75233e-09 0.00110348 -0.91051 2.3766e-09 0.00110358 -0.908449
1.82432e-17 0.00110368 -0.906759 -1.9537e-09 0.00110376 -0.905069 -3.91487e-09 0.00110385 -0.90338 -5.88352e-09
0.00110393 -0.90169 -7.85963e-09 0.00110402 -0.9 -9.84323e-09 0.0011041 -0.89625 -1.4261e-08 0.00110429
-0.8925 -1.87101e-08 0.00110449 -0.88875 -2.31898e-08 0.00110469 -0.885 -2.76863e-08 0.00110489 -0.88125
-3.21845e-08 0.0011051 -0.8775 -3.66779e-08 0.0011053 -0.87375 -4.12099e-08 0.00110551 -0.87 -4.57738e-08
0.00110572 -0.86625 -5.03552e-08 0.00110594 -0.8625 -5.49385e-08 0.00110615 -0.85875 -5.95121e-08 0.00110637
-0.855 -6.41273e-08 0.00110659 -0.85125 -6.87721e-08 0.00110681 -0.8475 -7.34335e-08 0.00110704 -0.84375
-7.80969e-08 0.00110727 -0.84 -8.27568e-08 0.0011075 -0.83625 -8.74451e-08 0.00110773 -0.8325 -9.21558e-08
0.00110797 -0.82875 -9.68792e-08 0.00110822 -0.825 -1.01605e-07 0.00110846 -0.82125 -1.06309e-07 0.0011087
-0.8175 -1.11051e-07 0.00110895 -0.81375 -1.15807e-07 0.00110921 -0.81 -1.2057e-07 0.00110947 -0.80625
-1.25336e-07 0.00110973 -0.8025 -1.30074e-07 0.00110999 -0.79875 -1.34852e-07 0.00111026 -0.795 -1.39639e-07
0.00111053 -0.79125 -1.4443e-07 0.00111081 -0.7875 -1.49225e-07 0.00111109 -0.78375 -1.54012e-07 0.00111137
-0.78 -1.58822e-07 0.00111165 -0.77625 -1.63643e-07 0.00111195 -0.7725 -1.68472e-07 0.00111224 -0.76875
-1.73303e-07 0.00111254 -0.765 -1.78127e-07 0.00111284 -0.76125 -1.82974e-07 0.00111315 -0.7575 -1.87832e-07
0.00111346 -0.75375 -1.92696e-07 0.00111378 -0.75 -1.97564e-07 0.0011141 -0.74625 -2.0238e-07 0.00111442
-0.7425 -2.07264e-07 0.00111475 -0.73875 -2.1216e-07 0.00111509 -0.735 -2.17064e-07 0.00111543 -0.73125
-2.21971e-07 0.00111577 -0.7275 -2.26815e-07 0.00111611 -0.72375 -2.31744e-07 0.00111647 -0.72 -2.36689e-07
0.00111683 -0.71625 -2.41644e-07 0.0011172 -0.7125 -2.46603e-07 0.00111757 -0.70875 -2.51488e-07 0.00111793
-0.705 -2.56471e-07 0.00111831 -0.70125 -2.61471e-07 0.0011187 -0.6975 -2.66483e-07 0.0011191 -0.69375
-2.71498e-07 0.00111949 -0.69 -2.76503e-07 0.00111989 -0.68625 -2.81548e-07 0.0011203 -0.6825 -2.86612e-07
0.00112072 -0.67875 -2.9169e-07 0.00112114 -0.675 -2.96771e-07 0.00112157 -0.67125 -3.01843e-07 0.00112199
-0.6675 -3.06956e-07 0.00112243 -0.66375 -3.12089e-07 0.00112288 -0.66 -3.17236e-07 0.00112334 -0.65625
-3.22387e-07 0.0011238 -0.6525 -3.2742e-07 0.00112426 -0.64875 -3.3261e-07 0.00112473 -0.645 -3.37826e-07
0.00112521 -0.64125 -3.43058e-07 0.00112571 -0.6375 -3.48295e-07 0.0011262 -0.63375 -3.53523e-07 0.00112669
-0.63 -3.58813e-07 0.0011272 -0.62625 -3.64141e-07 0.00112772 -0.6225 -3.69492e-07 0.00112825 -0.61875
-3.74849e-07 0.00112878 -0.615 -3.80197e-07 0.00112931 -0.61125 -3.85612e-07 0.00112985 -0.6075 -3.91068e-07
0.00113042 -0.60375 -3.96549e-07 0.00113098 -0.6 -4.02036e-07 0.00113155 -0.59625 -4.07516e-07 0.00113212
-0.5925 -4.1303e-07 0.0011327 -0.58875 -4.18549e-07 0.00113327 -0.585 -4.24096e-07 0.00113385 -0.58125
-4.29689e-07 0.00113444 -0.5775 -4.35104e-07 0.00113506 -0.57375 -4.40766e-07 0.00113567 -0.57 -4.46434e-07
0.00113628 -0.56625 -4.52138e-07 0.00113691 -0.5625 -4.57899e-07 0.00113755 -0.55875 -4.63458e-07 0.00113821
-0.555 -4.69305e-07 0.00113887 -0.55125 -4.75158e-07 0.00113952 -0.5475 -4.81056e-07 0.0011402 -0.54375
-4.87023e-07 0.00114088 -0.54 -4.93052e-07 0.00114159 -0.53625 -4.99124e-07 0.0011423 -0.5325 -5.05203e-07
0.00114301 -0.52875 -5.11333e-07 0.00114372 -0.525 -5.17542e-07 0.00114446 -0.52125 -5.23481e-07 0.00114522
-0.5175 -5.29812e-07 0.00114598 -0.51375 -5.36151e-07 0.00114673 -0.51 -5.42543e-07 0.0011475 -0.50625
-5.49015e-07 0.00114829 -0.5025 -5.55161e-07 0.0011491 -0.49875 -5.61764e-07 0.00114991 -0.495 -5.68377e-07
0.00115072 -0.49125 -5.75043e-07 0.00115154 -0.4875 -5.81787e-07 0.00115238 -0.48375 -5.88616e-07 0.00115324
-0.48 -5.955e-07 0.0011541 -0.47625 -6.02395e-07 0.00115496 -0.4725 -6.09346e-07 0.00115583 -0.46875
-6.16381e-07 0.00115672 -0.465 -6.23512e-07 0.00115763 -0.46125 -6.30703e-07 0.00115854 -0.4575 -6.37906e-07
0.00115945 -0.45375 -6.45176e-07 0.00116037 -0.45 -6.52544e-07 0.0011613 -0.44625 -6.60029e-07 0.00116225
-0.4425 -6.67581e-07 0.00116321 -0.43875 -6.75147e-07 0.00116416 -0.435 -6.82788e-07 0.00116512 -0.43125
-6.90535e-07 0.0011661 -0.4275 -6.97614e-07 0.00116709 -0.42375 -7.05571e-07 0.00116808 -0.42 -7.13544e-07
0.00116906 -0.41625 -7.21591e-07 0.00117006 -0.4125 -7.29743e-07 0.00117106 -0.40875 -7.37082e-07 0.00117207
-0.405 -7.45461e-07 0.00117308 -0.40125 -7.53858e-07 0.00117409 -0.3975 -7.62331e-07 0.0011751 -0.39375
-7.70907e-07 0.0011761 -0.39 -7.79646e-07 0.00117711 -0.38625 -7.88475e-07 0.00117811 -0.3825 -7.97325e-07
0.00117912 -0.37875 -8.06253e-07 0.00118012 -0.375 -8.15285e-07 0.0011811 -0.37125 -8.24501e-07 0.00118206
-0.3675 -8.33818e-07 0.00118303 -0.36375 -8.43158e-07 0.001184 -0.36 -8.52581e-07 0.00118494 -0.35625
-8.62112e-07 0.00118584 -0.3525 -8.7021e-07 0.00118671 -0.34875 -8.80061e-07 0.00118758 -0.345 -8.89939e-07
0.00118845 -0.34125 -8.99902e-07 0.00118927 -0.3375 -9.09972e-07 0.00119003 -0.33375 -9.20283e-07 0.00119073
-0.33 -9.3072e-07 0.00119142 -0.32625 -9.41187e-07 0.00119212 -0.3225 -9.51729e-07 0.00119274 -0.31875
-9.62364e-07 0.00119326 -0.315 -9.73263e-07 0.00119367 -0.31125 -9.843e-07 0.00119409 -0.3075 -9.9537e-07
0.0011945 -0.30375 -1.00651e-06 0.0011948 -0.3 -1.01775e-06 0.00119495 -0.29625 -1.02643e-06 0.00119493
-0.2925 -1.03815e-06 0.00119468 -0.28875 -1.04995e-06 0.0011942 -0.285 -1.06181e-06 0.00119354 -0.28125
-1.07369e-06 0.00119289 -0.2775 -1.08244e-06 0.00119224 -0.27375 -1.09473e-06 0.00119125 -0.27 -1.107e-06
0.00118993 -0.26625 -1.11926e-06 0.00118837 -0.2625 -1.13154e-06 0.0011868 -0.25875 -1.14007e-06 0.00118525
-0.255 -1.15275e-06 0.00118321 -0.25125 -1.16533e-06 0.00118068 -0.2475 -1.17785e-06 0.00117783 -0.24375
-1.19039e-06 0.00117498 -0.24 -1.20336e-06 0.00117214 -0.23625 -1.21629e-06 0.00116866 -0.2325 -1.22903e-06
0.00116456 -0.22875 -1.24164e-06 0.00116004 -0.225 -1.25427e-06 0.00115554 -0.22125 -1.26156e-06 0.00115106
-0.2175 -1.27435e-06 0.00114572 -0.21375 -1.28673e-06 0.00113952 -0.21 -1.29886e-06 0.00113282 -0.20625
-1.31101e-06 0.00112616 -0.2025 -1.31697e-06 0.00111955 -0.19875 -1.32943e-06 0.00111173 -0.195 -1.34128e-06
0.00110271 -0.19125 -1.3528e-06 0.00109311 -0.1875 -1.36435e-06 0.0010836 -0.18375 -1.37634e-06 0.00107418
-0.18 -1.38744e-06 0.00106325 -0.17625 -1.39754e-06 0.0010508 -0.1725 -1.40724e-06 0.00103784 -0.16875
-1.41696e-06 0.00102507 -0.165 -1.42736e-06 0.00101246 -0.16125 -1.43642e-06 0.000998081 -0.1575 -1.44411e-06
0.000981955 -0.15375 -1.45148e-06 0.000965591 -0.15 -1.45891e-06 0.000949531 -0.14625 -1.4671e-06 0.000933765
-0.1425 -1.47258e-06 0.000916 -0.13875 -1.4754e-06 0.0008963 -0.135 -1.47814e-06 0.000876864 -0.13125
-1.48104e-06 0.000857886 -0.1275 -1.47449e-06 0.000839352 -0.12375 -1.4759e-06 0.000818751 -0.12 -1.47552e-06
0.000796493 -0.11625 -1.47541e-06 0.000774879 -0.1125 -1.47557e-06 0.000753885 -0.10875 -1.46612e-06 0.000733492
-0.105 -1.46253e-06 0.000711072 -0.10125 -1.4564e-06 0.000687692 -0.0975 -1.45077e-06 0.000665106 -0.0937499
-1.44561e-06 0.000643285 -0.0899999 -1.44136e-06 0.000622198 -0.0862499 -1.43601e-06 0.000599575 -0.0824999 -1.43068e-06
0.00057689 -0.0787499 -1.42588e-06 0.000555068 -0.0749999 -1.42159e-06 0.000534075 -0.0712499 -1.41809e-06 0.000513876
-0.0674999 -1.41844e-06 0.000493591 -0.0637499 -1.41974e-06 0.000473955 -0.0599999 -1.42138e-06 0.000455086 -0.0562499
-1.42333e-06 0.000436957 -0.0524999 -1.41626e-06 0.000419535 -0.0487498 -1.41715e-06 0.000404455 -0.0449998 -1.41833e-06
0.000389899 -0.0412498 -1.41979e-06 0.000375851 -0.0374998 -1.42153e-06 0.000362295 -0.0337498 -1.42356e-06 0.00034921
-0.0299998 -1.42421e-06 0.00034058 -0.0262498 -1.42506e-06 0.000332155 -0.0224998 -1.42611e-06 0.00032393 -0.0187499
-1.42733e-06 0.000315902 -0.0149999 -1.42857e-06 0.000308065 -0.0112499 -1.43465e-06 0.000304636 -0.0074999 -1.44077e-06
0.000301244 -0.00374991 -1.44695e-06 0.000297888 6.11907e-08 -1.45318e-06 0.000294568 0.00375005 -1.45169e-06 0.000291284
0.00750005 -1.45688e-06 0.000288038 0.01125 -1.4621e-06 0.000284826 0.015 -1.46737e-06 0.000281649 0.01875
-1.47269e-06 0.000278506 0.0225 -1.47763e-06 0.000277466 0.02625 -1.48855e-06 0.000276431 0.03 -1.49949e-06
0.000275399 0.03375 -1.51046e-06 0.000274371 0.0375 -1.52147e-06 0.000273347 0.04125 -1.52877e-06 0.000272855
0.045 -1.54135e-06 0.000272365 0.04875 -1.55397e-06 0.000271876 0.0525 -1.56661e-06 0.000271387 0.05625
-1.57929e-06 0.0002709 0.06 -1.59338e-06 0.000270697 0.06375 -1.60683e-06 0.000270495 0.0675 -1.62032e-06
0.000270293 0.07125 -1.63384e-06 0.000270091 0.075 -1.64739e-06 0.000269889 0.07875 -1.65544e-06 0.000269837
0.0825 -1.66784e-06 0.000269785 0.08625 -1.68028e-06 0.000269732 0.09 -1.69275e-06 0.00026968 0.09375
-1.70525e-06 0.000269628 0.0975 -1.70964e-06 0.000269627 0.10125 -1.71828e-06 0.000269627 0.105 -1.72695e-06
0.000269626 0.10875 -1.73564e-06 0.000269625 0.1125 -1.74434e-06 0.000269625 0.11625 -1.75056e-06 0.000269636
[...]
POINT_DATA 19587
FIELD attributes 3
age 1 19587 float
0 7.30128e-05 0.000146029 0.000219049 0.000292073 0.000365101 0.000553975 0.000742848 0.000931722 0.00112061 0.00130954
0.00149849 0.00168745 0.0018764 0.00206537 0.00225438 0.00244342 0.00263247 0.00282151 0.00301057 0.00319967
0.0033888 0.00357794 0.00376707 0.00395623 0.00414542 0.00424938 0.00435334 0.0044573 0.00456126 0.00466523
0.00475051 0.0048358 0.0049211 0.0050064 0.00509171 0.00528105 0.00547044 0.00565987 0.00584933 0.00603879
0.00622824 0.00641775 0.0066073 0.00679688 0.00698646 0.00717604 0.00736567 0.00755536 0.00774507 0.00793478
0.00812449 0.00831426 0.00850408 0.00869394 0.00888379 0.00907364 0.00926356 0.00945353 0.00964354 0.00983354
0.0100236 0.0102136 0.0104038 0.0105939 0.0107841 0.0109743 0.0111645 0.0113548 0.0115452 0.0117355
0.0119259 0.0121163 0.0123068 0.0124973 0.0126879 0.0128784 0.0130691 0.0132598 0.0134505 0.0136413
0.013832 0.0140229 0.0142138 0.0144048 0.0145957 0.0147867 0.0149778 0.015169 0.0153602 0.0155514
0.0157426 0.0159339 0.0161254 0.0163169 0.0165084 0.0166999 0.0168915 0.0170832 0.017275 0.0174667
0.0176585 0.0178504 0.0180424 0.0182345 0.0184266 0.0186187 0.018811 0.0190033 0.0191958 0.0193882
0.0195807 0.0197733 0.019966 0.0201588 0.0203517 0.0205445 0.0207373 0.0209302 0.0211231 0.0213162
0.0215094 0.0217027 0.0218959 0.0220893 0.0222828 0.0224765 0.0226702 0.0228639 0.0230578 0.0232518
0.023446 0.0236402 0.0238344 0.0240287 0.0242233 0.0244181 0.0246128 0.0248076 0.0250025 0.0251976
0.025393 0.0255884 0.0257838 0.0259793 0.0261751 0.0263711 0.0265672 0.0267633 0.0269595 0.027156
0.0273528 0.0275496 0.0277464 0.0279434 0.0281407 0.0283383 0.0285359 0.0287336 0.0289314 0.0291296
0.0293281 0.0295267 0.0297252 0.029924 0.0301232 0.0303227 0.0305222 0.0307218 0.0309216 0.0311218
0.0313225 0.0315231 0.0317238 0.0319248 0.0321262 0.032328 0.0325299 0.0327318 0.032934 0.0331367
0.0333399 0.0335431 0.0337463 0.0339498 0.0341539 0.0343586 0.0345632 0.0347678 0.0349729 0.0351785
0.0353846 0.0355908 0.035797 0.0360036 0.0362107 0.0364185 0.0366268 0.0368358 0.0370452 0.0372546
0.0374639 0.0376739 0.0378844 0.0380954 0.0383063 0.0385172 0.0387286 0.0389406 0.039153 0.0393653
0.0395775 0.0397902 0.0400033 0.0402167 0.0404299 0.0406431 0.0408565 0.0410702 0.0412841 0.0414978
0.0417112 0.0419248 0.0421383 0.0423517 0.0425648 0.0427777 0.0429902 0.0432022 0.0434139 0.0436252
0.0438362 0.0440463 0.0442554 0.044464 0.0446723 0.0448801 0.0450865 0.0452913 0.0454956 0.0456996
0.0459031 0.0461045 0.046304 0.0465031 0.0467019 0.0469003 0.047096 0.0472898 0.0474834 0.0476768
0.0478701 0.0480599 0.0482484 0.0484368 0.0486252 0.0488136 0.0489983 0.0491825 0.0493669 0.0495514
0.0497359 0.0499172 0.0500986 0.0502803 0.0504621 0.0506442 0.0508241 0.0510043 0.0511846 0.051365
0.0515457 0.0517256 0.0519057 0.0520858 0.0522659 0.0524462 0.0526265 0.0528069 0.0529874 0.053168
0.0533487 0.0535293 0.0537101 0.0538908 0.0540716 0.0542526 0.0544337 0.0546148 0.0547959 0.054977
0.0551584 0.0553399 0.0555213 0.0557028 0.0558842 0.056066 0.0562477 0.0564295 0.0566113 0.056793
0.0569751 0.0571571 0.0573392 0.0575212 0.0577033 0.0578856 0.058068 0.0582503 0.0584327 0.058615
0.0587977 0.0589803 0.0591629 0.0593456 0.0595282 0.0597112 0.0598941 0.060077 0.06026 0.0604429
0.0606262 0.0608094 0.0609927 0.0611759 0.0613591 0.0615427 0.0617262 0.0619098 0.0620934 0.0622769
0.0624608 0.0626446 0.0628284 0.0630123 0.0631961 0.0633802 0.0635644 0.0637485 0.0639326 0.0641167
0.0643011 0.0644855 0.0646698 0.0648542 0.0650386 0.0652232 0.0654078 0.0655924 0.065777 0.0659616
0.0661464 0.0663312 0.066516 0.0667008 0.0668856 0.0670706 0.0672558 0.067441 0.0676261 0.0678113
0.0679965 0.0681818 0.0683671 0.0685524 0.0687377 0.068923 0.0691085 0.0692939 0.0694794 0.0696648
0.0698503 0.0700358 0.0702214 0.0704069 0.0705925 0.0707781 0.0709637 0.0711494 0.071335 0.0715207
0.0717064 0.0718921 0.0720779 0.0722636 0.0724493 0.0726351 0.0728209 0.0730067 0.0731925 0.0733783
0.0735641 0.07375 0.0739358 0.0741216 0.0743075 0.0744933 0.0746792 0.0748651 0.0750509 0.0752368
0.0754227 0.0756085 0.0757944 0.0759803 0.0761661 0.076352 0.0765378 0.0767237 0.0769095 0.0770953
0.0772812 0.077467 0.0776528 0.0778386 0.0780244 0.0782102 0.0783959 0.0785817 0.0787674 0.0789532
0.0791389 0.0793246 0.0795104 0.0796961 0.0798818 0.0800675 0.0802532 0.0804389 0.0806246 0.0808103
0.080996 0.0811817 0.0813674 0.0815531 0.0817388 0.0819245 0.0821102 0.0822959 0.0824816 0.0826674
0.0828531 0.0830388 0.0832246 0.0834103 0.0835961 0.0837819 0.0839677 0.0841535 0.0843393 0.0845251
0.084558 0.084591 0.084624 0.084657 0.0846899 0.0848428 0.0849957 0.0851486 0.0853015 0.0854544
0.0856403 0.0858263 0.0860122 0.0861981 0.0863841 0.08657 0.086756 0.086942 0.087128 0.087314
0.0875001 0.0876861 0.0878721 0.0880582 0.0882442 0.0884303 0.0886164 0.0888025 0.0889886 0.0891747
0.0893609 0.089547 0.0897331 0.0899193 0.0901054 0.0902916 0.0904778 0.090664 0.0908501 0.0910363
0.0912225 0.0914087 0.0915949 0.0917812 0.0919674 0.0921536 0.0923399 0.0925261 0.0927123 0.0928986
0.0930848 0.0932711 0.0934574 0.0936436 0.0938299 0.0940162 0.0942025 0.0943888 0.0945751 0.0947614
0.0949477 0.095134 0.0953204 0.0955067 0.095693 0.0958794 0.0960657 0.0962521 0.0964384 0.0966248
0.0968112 0.0969976 0.0971841 0.0973705 0.097557 0.0977434 0.0979299 0.0981164 0.0983029 0.0984894
0.0986759 0.0988624 0.0990489 0.0992354 0.0994219 0.0996085 0.0997949 0.0999814 0.100168 0.100354
0.100541 0.100727 0.100914 0.1011 0.101287 0.101473 0.101659 0.101846 0.102032 0.102219
0.102405 0.102592 0.102779 0.102965 0.103152 0.103339 0.103525 0.103712 0.103899 0.104086
0.104273 0.104461 0.104648 0.104836 0.105023 0.10521 0.105398 0.105586 0.105774 0.105963
0.106151 0.106339 0.106528 0.106717 0.106906 0.107094 0.107284 0.107474 0.107663 0.107853
0.108042 0.108233 0.108423 0.108613 0.108804 0.108994 0.109185 0.109376 0.109567 0.109758
0.109949 0.110141 0.110332 0.110524 0.110715 0.110907 0.111099 0.11129 0.111482 0.111674
0.111866 0.112058 0.11225 0.112442 0.112633 0.112825 0.113018 0.11321 0.113402 0.113594
0.113786 0.113978 0.11417 0.114362 0.114554 0.114746 0.114939 0.115131 0.115323 0.115515
0.115707 0.1159 0.116092 0.116284 0.116476 0.116668 0.11686 0.117052 0.117245 0.117437
0.117629 0.117821 0.118013 0.118205 0.118397 0.118589 0.118781 0.118974 0.119166 0.119358
0.11955 0.119742 0.119934 0.120126 0.120318 0.12051 0.120702 0.120894 0.121086 0.121278
0.121471 0.121663 0.121855 0.122047 0.122239 0.122413 0.122586 0.12276 0.122934 0.123135
0.123148 0.12316 0.123173 0.123186 0.123199 0.123391 0.123583 0.123775 0.123967 0.124159
0.124351 0.124543 0.124735 0.124927 0.125118 0.12531 0.125502 0.125694 0.125886 0.126078
0.126269 0.126461 0.126653 0.126845 0.127036 0.127228 0.12742 0.127612 0.127803 0.127995
0.128187 0.128378 0.12857 0.128762 0.128953 0.129145 0.129336 0.129528 0.129719 0.12991
0.130007 0.130104 0.130202 0.130299 0.13034 0.130445 0.130551 0.130656 0.130761 0.130866
0.131058 0.131249 0.13144 0.131631 0.131822 0.132012 0.132203 0.132394 0.132585 0.132776
0.132966 0.133157 0.133348 0.133538 0.133729 0.133919 0.13411 0.1343 0.13449 0.134681
0.134871 0.135061 0.135251 0.135441 0.135631 0.135821 0.136011 0.136201 0.136391 0.136581
0.136771 0.136961 0.13715 0.13734 0.13753 0.137719 0.137909 0.138098 0.138288 0.138477
0.138667 0.138856 0.139046 0.139235 0.139424 0.139613 0.139803 0.139992 0.140181 0.14037
0.140559 0.140748 0.140937 0.141126 0.141315 0.141504 0.141693 0.141882 0.142071 0.142259
0.142448 0.142637 0.142826 0.143014 0.143203 0.143392 0.14358 0.143769 0.143958 0.144146
0.144335 0.144523 0.144712 0.1449 0.145089 0.145277 0.145466 0.145654 0.145842 0.146031
0.146219 0.146407 0.146596 0.146784 0.146972 0.147161 0.147349 0.147537 0.147725 0.147913
0.148102 0.14829 0.148478 0.148666 0.148854 0.149042 0.14923 0.149418 0.149607 0.149795
0.149983 0.150171 0.150359 0.150547 0.150735 0.150923 0.151111 0.151299 0.151487 0.151675
0.152051 0.152426 0.152802 0.153178 0.153554 0.154304 0.155055 0.155805 0.156556 0.157307
0.158807 0.160307 0.161808 0.163308 0.164808 0.166308 0.167808 0.169309 0.170809 0.172309
0.175309 0.17831 0.18131 0.18431 0.18731 0.19331 0.19931 0.205311 0.211311 0.217311
0.223311 0.229311 0.235311 0.241311 0.247311 0.253311 0.259311 0.265311 0.271311 0.277311
0.283311 0.289311 0.295311 0.301312 0.307312 0.313312 0.319312 0.325312 0.331312 0.337312
0.343312 0.349312 0.355312 0.361312 0.367312 0.373312 0.379312 0.385312 0.391312 0.397312
0.403312 0.403401 0 7.36828e-05 0.000147369 0.00022106 0.000294755 0.000368453 0.000559065 0.00074971
0.00094039 0.0011311 0.00132185 0.00147438 0.00162694 0.00177952 0.00193212 0.00207764 0.00211733 0.00215703
0.00219673 0.00223643 0.00227613 0.00246709 0.00265809 0.00284912 0.00304019 0.0032313 0.00342244 0.00361363
0.00380486 0.00399612 0.00418743 0.00437878 0.00457017 0.0047616 0.00495308 0.0051446 0.00533617 0.00552778
0.00571943 0.00591114 0.00610289 0.00629469 0.00648653 0.00667843 0.00687038 0.00706237 0.00725442 0.00744652
0.00763867 0.00783088 0.00802314 0.00821545 0.00840783 0.00860026 0.00879274 0.00898529 0.00917789 0.00937056
0.00956328 0.00975607 0.00994892 0.0101418 0.0103348 0.0105279 0.010721 0.0109142 0.0111074 0.0113007
0.0114941 0.0116876 0.0118811 0.0120747 0.0122684 0.0124622 0.012656 0.01285 0.013044 0.0132381
0.0134322 0.0136265 0.0138208 0.0140152 0.0142098 0.0144044 0.0145991 0.0147939 0.0149888 0.0151837
0.0153788 0.015574 0.0157693 0.0159647 0.0161602 0.0163558 0.0165515 0.0167473 0.0169432 0.0171393
0.0173354 0.0175317 0.0177281 0.0179246 0.0181213 0.018318 0.0185149 0.018712 0.0189091 0.0191064
0.0193039 0.0195015 0.0196992 0.0198971 0.0200951 0.0202933 0.0204916 0.0206901 0.0208887 0.0210875
0.0212865 0.0214857 0.021685 0.0218845 0.0220841 0.022284 0.022484 0.0226843 0.0228847 0.0230853
0.0232862 0.0234872 0.0236884 0.0238899 0.0240916 0.0242935 0.0244956 0.0246979 0.0249005 0.0251033
0.0253064 0.0255098 0.0257133 0.0259172 0.0261213 0.0263257 0.0265304 0.0267353 0.0269405 0.0271461
0.0273519 0.0275581 0.0277645 0.0279713 0.0281784 0.0283859 0.0285937 0.0288019 0.0290104 0.0292193
0.0294285 0.0296382 0.0298482 0.0300586 0.0302695 0.0304808 0.0306925 0.0309047 0.0311172 0.0313303
0.0315439 0.0317579 0.0319724 0.0321874 0.032403 0.032619 0.0328357 0.0330529 0.0332706 0.0334889
0.0337078 0.0339274 0.0341476 0.0343684 0.0345898 0.034812 0.0350349 0.0352584 0.0354827 0.0357077
0.0359335 0.03616 0.0363874 0.0366155 0.0368445 0.0370744 0.0373052 0.0375369 0.0377694 0.0380029
0.0382374 0.0384728 0.0387093 0.0389467 0.0391853 0.039425 0.0396657 0.0399076 0.0401506 0.0403947
0.0406399 0.0408864 0.0411342 0.0413832 0.0416335 0.0418851 0.0421379 0.0423922 0.0426476 0.0429043
0.043162 0.0434211 0.0436819 0.0439438 0.044207 0.0444713 0.0447366 0.045004 0.0452717 0.0455401
0.0458089 0.0460783 0.0463502 0.0464777 0.0466052 0.0467326 0.0468599 0.0469398 0.0470934 0.0472469
0.0474002 0.0475534 0.0477076 0.0479783 0.0482474 0.0485146 0.0487799 0.0490483 0.0491946 0.0493398
0.0494839 0.0496267 0.0497369 0.0498571 0.0499766 0.0500952 0.0502132 0.0503313 0.0505787 0.050821
0.0510583 0.0512909 0.0515201 0.0515356 0.0515512 0.0515667 0.0515822 0.0515978 0.0518043 0.0520062
0.0522037 0.052397 0.0525842 0.0526957 0.0528055 0.0529136 0.0530204 0.0531544 0.0532287 0.0533023
0.0533752 0.0534475 0.0535187 0.0536931 0.0538639 0.0540311 0.0541952 0.0543528 0.0544914 0.0546284
0.0547639 0.0548979 0.055119 0.0551338 0.0551486 0.0551633 0.0551781 0.0551949 0.0553263 0.0554571
0.0555874 0.0557172 0.0558456 0.0559886 0.0561316 0.0562749 0.0564182 0.0565614 0.0567048 0.0568484
0.0569924 0.0571367 0.0572814 0.0574265 0.0575719 0.0577177 0.0578639 0.0580104 0.0581572 0.0583044
0.0584518 0.0585996 0.0587477 0.0588962 0.059045 0.059194 0.0593434 0.0594931 0.0596431 0.0597934
0.059944 0.0600949 0.0602461 0.0603976 0.0605494 0.0607016 0.060854 0.0610068 0.0611599 0.0613133
0.061467 0.0616211 0.0617755 0.0619302 0.0620853 0.0622407 0.0623965 0.0625526 0.062709 0.0628658
0.063023 0.0631805 0.0633384 0.0634966 0.0636552 0.0638141 0.0639733 0.0641329 0.0642929 0.0644532
0.0646138 0.0647748 0.0649361 0.0650977 0.0652597 0.0654219 0.0655845 0.0657474 0.0659107 0.0660742
0.066238 0.0664021 0.0665665 0.0667312 0.0668961 0.0670614 0.0672269 0.0673927 0.0675588 0.0677251
0.0678916 0.0680584 0.0682255 0.0683928 0.0685603 0.0687281 0.068896 0.0690643 0.0692327 0.0694013
0.0695702 0.0697392 0.0699084 0.0700779 0.0702476 0.0704174 0.0705874 0.0707576 0.070928 0.0710986
0.0712693 0.0714402 0.0716112 0.0717824 0.0719538 0.0721254 0.072297 0.0724688 0.0726408 0.0728129
0.0729851 0.0731574 0.0733298 0.0735024 0.0736751 0.0738479 0.0740208 0.0741938 0.0743669 0.07454
0.0747132 0.0748865 0.0750599 0.0752334 0.0754069 0.0755804 0.075754 0.0759277 0.0761014 0.076275
0.0764487 0.0766224 0.0767961 0.0769698 0.0771435 0.0773173 0.0774909 0.0776646 0.0778382 0.0780118
0.0781853 0.0783589 0.0785323 0.0787057 0.0788791 0.0790525 0.0792258 0.079399 0.0795722 0.0797453
0.0799183 0.0800914 0.0802643 0.0804373 0.0806102 0.0807831 0.080956 0.0811288 0.0813017 0.0814745
0.0816474 0.0818202 0.0819932 0.0821661 0.0823391 0.0825122 0.0826853 0.0828585 0.0830317 0.083205
0.0833784 0.0835519 0.0837255 0.0838992 0.084073 0.0842469 0.0844209 0.084595 0.0847692 0.0849435
0.085118 0.0852925 0.0854672 0.085631 0.085795 0.085959 0.0861232 0.086271 0.0862853 0.0862995
0.0863138 0.0863281 0.0863423 0.0865177 0.0866931 0.0868687 0.0870444 0.0872201 0.087396 0.087572
0.0877482 0.0879244 0.0881007 0.0882771 0.0884536 0.0886301 0.0888068 0.0889835 0.0891604 0.0893373
0.0895144 0.0896915 0.0898687 0.090046 0.0902234 0.0904008 0.0905783 0.0907558 0.0909335 0.0911113
0.0912891 0.091467 0.0916449 0.091823 0.092001 0.0921792 0.0923574 0.0925357 0.092714 0.0928925
0.093071 0.0932496 0.0934283 0.093607 0.0937858 0.0939646 0.0941435 0.0943226 0.0945017 0.0946808
0.0948601 0.0950395 0.0952189 0.0953984 0.095578 0.0957577 0.0959374 0.0961173 0.0962973 0.0964774
0.0966576 0.0968379 0.0970183 0.0971989 0.0973796 0.0975604 0.0977413 0.0979224 0.0981042 0.098286
0.0984679 0.09865 0.0988321 0.0990134 0.0991946 0.0993757 0.0995568 0.0997378 0.0999189 0.1001
0.100281 0.100462 0.100642 0.100823 0.101004 0.101185 0.101366 0.101546 0.101727 0.101909
0.10209 0.102272 0.102454 0.102637 0.10282 0.103004 0.103189 0.103374 0.10356 0.103747
0.103935 0.104124 0.104314 0.104505 0.104698 0.104892 0.105087 0.105283 0.105482 0.105682
0.105883 0.106087 0.106292 0.106499 0.106708 0.106918 0.107131 0.107346 0.107563 0.107782
0.108003 0.108227 0.108452 0.10868 0.10891 0.109142 0.109376 0.109613 0.109852 0.110094
0.110338 0.110584 0.110833 0.111084 0.111337 0.111592 0.11185 0.11211 0.112372 0.112637
0.112904 0.113174 0.113445 0.113719 0.113995 0.114273 0.114553 0.114835 0.115119 0.115406
0.115694 0.115984 0.116276 0.116373 0.116471 0.116568 0.116665 0.116765 0.116964 0.117163
0.117363 0.117564 0.117766 0.118068 0.118372 0.118677 0.118984 0.119292 0.119601 0.119911
0.120223 0.120535 0.120849 0.121163 0.121477 0.121792 0.122108 0.122424 0.122741 0.123059
0.123377 0.123696 0.124014 0.124333 0.124651 0.124968 0.125286 0.125604 0.125923 0.126241
0.12656 0.126878 0.127196 0.127514 0.12783 0.128146 0.128462 0.128778 0.129094 0.129409
0.129725 0.13004 0.130354 0.130419 0.130483 0.130548 0.130612 0.130677 0.130926 0.131175
0.131424 0.131672 0.131919 0.13223 0.13254 0.132848 0.133156 0.133462 0.133769 0.134075
0.134381 0.134685 0.134989 0.135292 0.135593 0.135894 0.136194 0.136493 0.136793 0.137092
0.137391 0.13769 0.137988 0.138285 0.138581 0.138876 0.139171 0.139466 0.139761 0.140056
0.14035 0.140645 0.140939 0.141171 0.141403 0.141635 0.141867 0.142126 0.142181 0.142237
0.142292 0.142347 0.142402 0.142694 0.142985 0.143275 0.143565 0.143853 0.144041 0.144228
0.144416 0.144602 0.144762 0.144867 0.144973 0.145078 0.145183 0.145288 0.145573 0.145858
0.146141 0.146424 0.146706 0.146988 0.14727 0.147552 0.147833 0.148113 0.148392 0.148671
0.148949 0.149227 0.149504 0.149781 0.150058 0.150334 0.150611 0.150886 0.151161 0.151434
0.151708 0.15198 0.152253 0.152525 0.152797 0.153069 0.15334 0.153611 0.15388 0.154149
0.154418 0.154686 0.154954 0.155221 0.155488 0.155754 0.15602 0.156286 0.15655 0.156814
0.157078 0.157341 0.157603 0.157865 0.158126 0.158387 0.158648 0.158907 0.159166 0.159425
0.159682 0.15994 0.160196 0.160452 0.160708 0.160963 0.161217 0.161471 0.161724 0.161976
0.162228 0.162479 0.16273 0.162925 0.163121 0.163315 0.16351 0.163737 0.163784 0.163831
0.163879 0.163926 0.163973 0.164219 0.164465 0.16471 0.164953 0.165194 0.16543 0.165667
0.165904 0.166138 0.166371 0.1666 0.166831 0.16706 0.167289 0.167516 0.167738 0.167963
0.168187 0.168411 0.168632 0.16885 0.169071 0.16929 0.169509 0.169727 0.169941 0.170158
0.170374 0.170589 0.170803 0.171225 0.171645 0.172064 0.172477 0.172879 0.173663 0.174446
0.175227 0.176006 0.176784 0.178308 0.179822 0.181335 0.182848 0.18436 0.185869 0.187379
0.188888 0.190397 0.191906 0.194917 0.197929 0.20094 0.203949 0.206958 0.212964 0.21897
0.224977 0.230983 0.236989 0.242989 0.248993 0.254997 0.261001 0.267004 0.273005 0.279008
0.285011 0.291013 0.297016 0.303017 0.309019 0.315022 0.321024 0.327027 0.333027 0.339029
0.345031 0.351033 0.357035 0.363036 0.369038 0.375039 0.381041 0.387043 0.393043 0.399045
0.405046 0.411048 0.417049 0.42305 0.427349 0 7.36588e-05 0.000147322 0.000220991 0.000294663
0.000368341 0.000558898 0.000749488 0.000940111 0.00113077 0.00132146 0.00147761 0.00163379 0.00178999 0.00194621
0.00209535 0.00213136 0.00216738 0.0022034 0.00223941 0.00227543 0.00246633 0.00265726 0.00284822 0.00303923
0.00323027 0.00342135 0.00361246 0.00380362 0.00399482 0.00418605 0.00437733 0.00456864 0.00476 0.0049514
0.00514285 0.00533433 0.00552587 0.00571744 0.00590906 0.00610073 0.00629244 0.0064842 0.00667601 0.00686787
0.00705978 0.00725173 0.00744374 0.0076358 0.00782791 0.00802007 0.00821229 0.00840456 0.00859689 0.00878927
0.00898171 0.00917421 0.00936676 0.00955938 0.00975206 0.00994479 0.0101376 0.0103305 0.0105234 0.0107164
0.0109094 0.0111026 0.0112957 0.011489 0.0116823 0.0118757 0.0120692 0.0122628 0.0124564 0.0126501
0.0128439 0.0130377 0.0132317 0.0134257 0.0136198 0.013814 0.0140082 0.0142026 0.014397 0.0145915
0.0147862 0.0149809 0.0151757 0.0153706 0.0155656 0.0157607 0.0159559 0.0161512 0.0163466 0.0165421
0.0167377 0.0169334 0.0171292 0.0173252 0.0175212 0.0177174 0.0179137 0.0181101 0.0183066 0.0185033
0.0187001 0.018897 0.0190941 0.0192912 0.0194886 0.019686 0.0198836 0.0200814 0.0202793 0.0204773
0.0206755 0.0208739 0.0210724 0.021271 0.0214699 0.0216689 0.0218681 0.0220674 0.0222669 0.0224667
0.0226666 0.0228666 0.0230669 0.0232674 0.0234681 0.0236689 0.02387 0.0240713 0.0242728 0.0244746
0.0246766 0.0248787 0.0250812 0.0252839 0.0254868 0.02569 0.0258934 0.0260971 0.026301 0.0265053
0.0267098 0.0269146 0.0271197 0.0273251 0.0275308 0.0277369 0.0279432 0.0281499 0.0283569 0.0285643
0.028772 0.0289801 0.0291885 0.0293974 0.0296066 0.0298162 0.0298586 0.0299009 0.0299433 0.0299857
0.0300271 0.0301954 0.0303639 0.0305327 0.0307017 0.0308711 0.0310834 0.0312961 0.0315093 0.0317231
0.0319374 0.0321521 0.0323675 0.0325834 0.0327999 0.033017 0.0332347 0.033453 0.0336721 0.0338917
0.0341121 0.0343332 0.034555 0.0347776 0.035001 0.0352252 0.0354502 0.0356761 0.0359029 0.0361306
0.0363593 0.0365889 0.0368197 0.0370515 0.0372845 0.0375185 0.0377537 0.0379901 0.0382279 0.038467
0.0387074 0.0389493 0.0391927 0.0394378 0.0396846 0.039933 0.040183 0.0404349 0.0406889 0.0409448
0.0412029 0.0414629 0.0417255 0.0419907 0.0422584 0.0425288 0.0428024 0.043079 0.0433588 0.0436419
0.0439287 0.0442183 0.0445121 0.04481 0.0451122 0.0454199 0.0457298 0.0460442 0.0463633 0.0466869
0.0470208 0.0471795 0.0473395 0.0475006 0.0476627 0.0477401 0.0479448 0.0481508 0.048358 0.0485665
0.0487832 0.0490852 0.0493892 0.0496949 0.0499997 0.0500898 0.0502082 0.0503263 0.0504441 0.0505615