# vtk DataFile Version 2.0
tracks
ASCII
DATASET POLYDATA
POINTS 20370 float
-1.001 1e-07 0.0011 -0.99955 1.00369e-07 0.00110002 -0.9981 1.00734e-07 0.00110005 -0.99665 1.01093e-07
0.00110007 -0.9952 1.01448e-07 0.00110011 -0.99375 1.01798e-07 0.00110014 -0.99 1.0267e-07 0.00110024
-0.98625 1.03563e-07 0.00110034 -0.9825 1.04455e-07 0.00110044 -0.97875 1.05359e-07 0.00110055 -0.975
1.06283e-07 0.00110068 -0.97125 1.07206e-07 0.00110083 -0.9675 1.08151e-07 0.00110099 -0.96375 1.09097e-07
0.00110114 -0.96 1.10073e-07 0.0011013 -0.95625 1.1111e-07 0.00110146 -0.9525 1.12197e-07 0.00110163
-0.94875 1.13295e-07 0.00110181 -0.945 1.14393e-07 0.00110198 -0.94125 1.15498e-07 0.00110215 -0.9375
1.16615e-07 0.00110233 -0.93375 1.1772e-07 0.00110251 -0.93 1.1885e-07 0.00110269 -0.92625 1.1998e-07
0.00110287 -0.9225 1.21122e-07 0.00110305 -0.91875 1.22286e-07 0.00110323 -0.915 1.23448e-07 0.00110342
-0.91125 1.24636e-07 0.0011036 -0.9075 1.25824e-07 0.00110379 -0.90375 1.27068e-07 0.00110398 -0.9
1.28419e-07 0.00110417 -0.89625 1.2985e-07 0.00110437 -0.8925 1.31485e-07 0.00110456 -0.88875 1.33297e-07
0.00110477 -0.885 1.352e-07 0.00110497 -0.88125 1.37105e-07 0.00110518 -0.8775 1.38999e-07 0.00110538
-0.87375 1.41109e-07 0.00110559 -0.87 1.43422e-07 0.00110581 -0.86625 1.45843e-07 0.00110602 -0.8625
1.48265e-07 0.00110624 -0.85875 1.50676e-07 0.00110646 -0.855 1.53281e-07 0.00110668 -0.85125 1.56069e-07
0.00110691 -0.8475 1.58952e-07 0.00110714 -0.84375 1.61838e-07 0.00110737 -0.84 1.64686e-07 0.0011076
-0.83625 1.67654e-07 0.00110784 -0.8325 1.70702e-07 0.00110808 -0.82875 1.73793e-07 0.00110832 -0.825
1.76885e-07 0.00110857 -0.82125 1.79965e-07 0.00110881 -0.8175 1.83059e-07 0.00110907 -0.81375 1.86152e-07
0.00110932 -0.81 1.89244e-07 0.00110959 -0.80625 1.92338e-07 0.00110985 -0.8025 1.9542e-07 0.00111011
-0.79875 1.98521e-07 0.00111038 -0.795 2.01627e-07 0.00111065 -0.79125 2.04735e-07 0.00111093 -0.7875
2.07844e-07 0.00111121 -0.78375 2.109e-07 0.00111149 -0.78 2.14084e-07 0.00111177 -0.77625 2.17338e-07
0.00111207 -0.7725 2.2063e-07 0.00111237 -0.76875 2.23924e-07 0.00111266 -0.765 2.27158e-07 0.00111296
-0.76125 2.30563e-07 0.00111327 -0.7575 2.34076e-07 0.00111358 -0.75375 2.37647e-07 0.0011139 -0.75
2.4122e-07 0.00111421 -0.74625 2.44781e-07 0.00111453 -0.7425 2.48435e-07 0.00111486 -0.73875 2.52166e-07
0.00111519 -0.735 2.55939e-07 0.00111553 -0.73125 2.59714e-07 0.00111587 -0.7275 2.63475e-07 0.00111621
-0.72375 2.67304e-07 0.00111656 -0.72 2.7118e-07 0.00111692 -0.71625 2.75084e-07 0.00111728 -0.7125
2.78989e-07 0.00111764 -0.70875 2.82882e-07 0.001118 -0.705 2.86812e-07 0.00111838 -0.70125 2.9076e-07
0.00111876 -0.6975 2.94718e-07 0.00111915 -0.69375 2.98679e-07 0.00111953 -0.69 3.02539e-07 0.00111992
-0.68625 3.06507e-07 0.00112032 -0.6825 3.10474e-07 0.00112072 -0.67875 3.14442e-07 0.00112114 -0.675
3.18412e-07 0.00112155 -0.67125 3.22267e-07 0.00112196 -0.6675 3.2626e-07 0.00112239 -0.66375 3.30266e-07
0.00112282 -0.66 3.34281e-07 0.00112326 -0.65625 3.38298e-07 0.00112371 -0.6525 3.42303e-07 0.00112415
-0.64875 3.46373e-07 0.0011246 -0.645 3.50483e-07 0.00112507 -0.64125 3.54616e-07 0.00112554 -0.6375
3.58754e-07 0.00112601 -0.63375 3.62742e-07 0.00112648 -0.63 3.66994e-07 0.00112696 -0.62625 3.71348e-07
0.00112746 -0.6225 3.75761e-07 0.00112796 -0.61875 3.80177e-07 0.00112847 -0.615 3.84424e-07 0.00112897
-0.61125 3.8896e-07 0.00112949 -0.6075 3.93598e-07 0.00113001 -0.60375 3.98296e-07 0.00113055 -0.6
4.03e-07 0.00113109 -0.59625 4.07508e-07 0.00113163 -0.5925 4.12236e-07 0.00113216 -0.58875 4.1697e-07
0.0011327 -0.585 4.21755e-07 0.00113325 -0.58125 4.26626e-07 0.00113381 -0.5775 4.31569e-07 0.00113438
-0.57375 4.36551e-07 0.00113496 -0.57 4.41537e-07 0.00113553 -0.56625 4.46609e-07 0.00113612 -0.5625
4.5182e-07 0.00113671 -0.55875 4.57159e-07 0.00113733 -0.555 4.6254e-07 0.00113794 -0.55125 4.67927e-07
0.00113855 -0.5475 4.73448e-07 0.00113918 -0.54375 4.79189e-07 0.00113981 -0.54 4.84847e-07 0.00114047
-0.53625 4.90845e-07 0.00114112 -0.5325 4.96851e-07 0.00114178 -0.52875 5.02998e-07 0.00114244 -0.525
5.09376e-07 0.00114312 -0.52125 5.15978e-07 0.00114382 -0.5175 5.22629e-07 0.00114452 -0.51375 5.2929e-07
0.00114522 -0.51 5.36028e-07 0.00114593 -0.50625 5.42887e-07 0.00114665 -0.5025 5.49865e-07 0.00114739
-0.49875 5.56897e-07 0.00114814 -0.495 5.63939e-07 0.00114888 -0.49125 5.71009e-07 0.00114963 -0.4875
5.78119e-07 0.0011504 -0.48375 5.84783e-07 0.00115119 -0.48 5.91993e-07 0.00115198 -0.47625 5.99214e-07
0.00115277 -0.4725 6.06499e-07 0.00115357 -0.46875 6.13881e-07 0.00115438 -0.465 6.2079e-07 0.00115521
-0.46125 6.2834e-07 0.00115604 -0.4575 6.35903e-07 0.00115688 -0.45375 6.4364e-07 0.00115772 -0.45
6.51642e-07 0.00115857 -0.44625 6.59241e-07 0.00115944 -0.4425 6.67597e-07 0.00116032 -0.43875 6.75968e-07
0.00116119 -0.435 6.84508e-07 0.00116207 -0.43125 6.933e-07 0.00116296 -0.4275 7.02371e-07 0.00116386
-0.42375 7.11522e-07 0.00116477 -0.42 7.20691e-07 0.00116567 -0.41625 7.29953e-07 0.00116658 -0.4125
7.39347e-07 0.00116749 -0.40875 7.48912e-07 0.00116841 -0.405 7.58566e-07 0.00116934 -0.40125 7.6824e-07
0.00117026 -0.3975 7.78033e-07 0.00117118 -0.39375 7.87991e-07 0.0011721 -0.39 7.9699e-07 0.00117302
-0.38625 8.07268e-07 0.00117394 -0.3825 8.1757e-07 0.00117486 -0.37875 8.28051e-07 0.00117577 -0.375
8.38786e-07 0.00117666 -0.37125 8.48429e-07 0.00117754 -0.3675 8.59604e-07 0.00117842 -0.36375 8.70807e-07
0.0011793 -0.36 8.82217e-07 0.00118016 -0.35625 8.93918e-07 0.00118099 -0.3525 9.06011e-07 0.00118178
-0.34875 9.18232e-07 0.00118258 -0.345 9.30485e-07 0.00118337 -0.34125 9.4296e-07 0.00118412 -0.3375
9.55739e-07 0.00118482 -0.33375 9.66875e-07 0.00118545 -0.33 9.80233e-07 0.00118609 -0.32625 9.93628e-07
0.00118672 -0.3225 1.00724e-06 0.00118729 -0.31875 1.02114e-06 0.00118776 -0.315 1.03297e-06 0.00118813
-0.31125 1.04749e-06 0.0011885 -0.3075 1.06205e-06 0.00118887 -0.30375 1.07681e-06 0.00118914 -0.3
1.09181e-06 0.00118926 -0.29625 1.10421e-06 0.00118922 -0.2925 1.12001e-06 0.00118896 -0.28875 1.13602e-06
0.00118849 -0.285 1.15219e-06 0.00118785 -0.28125 1.16839e-06 0.00118721 -0.2775 1.18492e-06 0.00118657
-0.27375 1.20177e-06 0.00118562 -0.27 1.21879e-06 0.00118434 -0.26625 1.23595e-06 0.00118283 -0.2625
1.25314e-06 0.00118132 -0.25875 1.27073e-06 0.00117982 -0.255 1.28858e-06 0.00117785 -0.25125 1.30652e-06
0.00117541 -0.2475 1.32454e-06 0.00117266 -0.24375 1.34258e-06 0.00116992 -0.24 1.35556e-06 0.00116718
-0.23625 1.37424e-06 0.00116382 -0.2325 1.39291e-06 0.00115985 -0.22875 1.4116e-06 0.00115548 -0.225
1.4303e-06 0.00115112 -0.22125 1.44957e-06 0.00114679 -0.2175 1.46855e-06 0.00114162 -0.21375 1.48707e-06
0.00113563 -0.21 1.50532e-06 0.00112916 -0.20625 1.52357e-06 0.00112272 -0.2025 1.54249e-06 0.00111633
-0.19875 1.56047e-06 0.00110876 -0.195 1.57733e-06 0.00110002 -0.19125 1.59359e-06 0.00109072 -0.1875
1.60985e-06 0.00108151 -0.18375 1.61757e-06 0.00107238 -0.18 1.63319e-06 0.00106173 -0.17625 1.64737e-06
0.00104957 -0.1725 1.66097e-06 0.0010369 -0.16875 1.67458e-06 0.00102441 -0.165 1.67853e-06 0.00101208
-0.16125 1.69089e-06 0.000997949 -0.1575 1.70119e-06 0.000982064 -0.15375 1.71098e-06 0.000965931 -0.15
1.72083e-06 0.000950093 -0.14625 1.72007e-06 0.000934542 -0.1425 1.72876e-06 0.000916958 -0.13875 1.73551e-06
0.000897404 -0.135 1.74221e-06 0.000878101 -0.13125 1.74904e-06 0.000859249 -0.1275 1.75679e-06 0.000840836
-0.12375 1.76014e-06 0.000820325 -0.12 1.75983e-06 0.00079812 -0.11625 1.75985e-06 0.000776555 -0.1125
1.76019e-06 0.000755609 -0.10875 1.76152e-06 0.000735259 -0.105 1.75922e-06 0.000712849 -0.10125 1.75493e-06
0.000689446 -0.0975 1.75116e-06 0.000666838 -0.0937499 1.74789e-06 0.000644997 -0.0899999 1.73314e-06 0.00062389
-0.0862499 1.72214e-06 0.000601188 -0.0824999 1.70838e-06 0.000578395 -0.0787499 1.69549e-06 0.000556474 -0.0749999
1.68345e-06 0.000535389 -0.0712499 1.66078e-06 0.000515104 -0.0674999 1.63311e-06 0.000494669 -0.0637499 1.60397e-06
0.000474879 -0.0599999 1.57621e-06 0.00045587 -0.0562499 1.54979e-06 0.000437611 -0.0524999 1.52478e-06 0.000420069
-0.0487498 1.48339e-06 0.000404878 -0.0449998 1.44354e-06 0.000390219 -0.0412498 1.40518e-06 0.000376076 -0.0374998
1.36825e-06 0.000362431 -0.0337498 1.32412e-06 0.000349265 -0.0299998 1.27145e-06 0.000340482 -0.0262498 1.21994e-06
0.000331911 -0.0224998 1.16957e-06 0.000323548 -0.0187499 1.1203e-06 0.000315388 -0.0149999 1.06546e-06 0.000307427
-0.0112499 9.89035e-07 0.000303796 -0.0074999 9.13131e-07 0.000300207 -0.00374991 8.37741e-07 0.000296658 6.11904e-08
7.62856e-07 0.00029315 0.00375005 6.8829e-07 0.000289683 0.00750005 6.13844e-07 0.000286256 0.01125 5.39937e-07
0.000282868 0.015 4.66563e-07 0.000279519 0.01875 3.93714e-07 0.000276208 0.0216583 3.1497e-07 0.000275296
0.0245666 2.36075e-07 0.000274388 0.0274749 1.57181e-07 0.000273483 0.0303831 7.82864e-08 0.000272581 0.0332693
-8.71184e-12 0.000271688 0.0341154 -2.29636e-08 0.000271427 0.0349616 -4.59196e-08 0.000271167 0.0358077 -6.88769e-08
0.000270906 0.0366539 -9.34014e-08 0.000270681 0.0375 -1.20047e-07 0.000270503 0.04125 -2.47057e-07 0.000269924
0.045 -3.74745e-07 0.000269346 0.04875 -5.02656e-07 0.00026877 0.0525 -6.30793e-07 0.000268195 0.05625
-7.59156e-07 0.000267621 0.06 -9.17619e-07 0.000267343 0.06375 -1.07627e-06 0.000267065 0.0675 -1.2353e-06
0.000266787 0.07125 -1.39472e-06 0.00026651 0.075 -1.55451e-06 0.000266233 0.07875 -1.74133e-06 0.000266094
0.0825 -1.93344e-06 0.000265956 0.08625 -2.12604e-06 0.000265818 0.09 -2.31915e-06 0.00026568 0.09375
-2.51276e-06 0.000265542 0.0975 -2.72956e-06 0.000265451 0.10125 -2.95443e-06 0.00026536 0.105 -3.17989e-06
0.000265269 0.10875 -3.40596e-06 0.000265179 0.1125 -3.63262e-06 0.000265088 0.11625 -3.8863e-06 0.000265008
0.12 -4.14084e-06 0.000264929 0.12375 -4.39609e-06 0.000264849 0.1275 -4.65203e-06 0.00026477 0.13125
-4.90868e-06 0.000264691 0.135 -5.18636e-06 0.000264603 0.13875 -5.46517e-06 0.000264517 0.1425 -5.74476e-06
[...]
POINT_DATA 20370
FIELD attributes 3
age 1 20370 float
0 7.30594e-05 0.000146123 0.00021919 0.000292261 0.000365336 0.000554332 0.000743328 0.000932325 0.00112134 0.00131039
0.00149947 0.00168855 0.00187763 0.00206673 0.00225586 0.00244504 0.00263421 0.00282338 0.00301257 0.0032018
0.00339107 0.00358034 0.0037696 0.00395889 0.00414822 0.0043376 0.00452697 0.00471634 0.00490573 0.00509517
0.00528466 0.00547419 0.00566376 0.00585336 0.00604296 0.00623257 0.00642222 0.00661192 0.00680165 0.00699138
0.0071811 0.00737089 0.00756072 0.00775059 0.00794045 0.00813032 0.00832024 0.00851022 0.00870023 0.00889025
0.00908026 0.00927033 0.00946047 0.00965064 0.00984081 0.010031 0.0102212 0.0104115 0.0106019 0.0107922
0.0109825 0.0111729 0.0113634 0.011554 0.0117445 0.011935 0.0121256 0.0123163 0.012507 0.0126977
0.0128884 0.0130792 0.0132701 0.0134611 0.013652 0.0138429 0.014034 0.0142251 0.0144162 0.0146074
0.0147986 0.0149898 0.0151812 0.0153726 0.015564 0.0157554 0.015947 0.0161386 0.0163303 0.016522
0.0167136 0.0169054 0.0170974 0.0172893 0.0174813 0.0176733 0.0178654 0.0180576 0.0182499 0.0184422
0.0186345 0.018827 0.0190195 0.0192122 0.0194048 0.0195975 0.0197903 0.0199832 0.0201762 0.0203692
0.0205623 0.0207553 0.0209483 0.0211415 0.0213348 0.0215282 0.0217216 0.0219151 0.0221086 0.0223024
0.0224963 0.0226901 0.0228841 0.0230781 0.0232723 0.0234667 0.0236611 0.0238555 0.02405 0.0242447
0.0244396 0.0246346 0.0248295 0.0250246 0.0252199 0.0254154 0.025611 0.0258065 0.0260022 0.0261982
0.0263944 0.0265906 0.0267868 0.0269832 0.0271798 0.0273767 0.0275737 0.0277706 0.0279677 0.0281652
0.0283629 0.0285606 0.0287584 0.0289563 0.0291546 0.0293533 0.0295519 0.0297505 0.0299494 0.0301486
0.0303482 0.0305478 0.0307475 0.0309474 0.0311476 0.0313483 0.031549 0.0317497 0.0319507 0.0321522
0.0323541 0.0325559 0.0327579 0.0329601 0.0331628 0.033366 0.0335692 0.0337724 0.0339759 0.03418
0.0343846 0.0345892 0.0347938 0.0349988 0.0352044 0.0354105 0.0356166 0.0358227 0.0360292 0.0362364
0.036444 0.0366523 0.0368612 0.0370706 0.0372799 0.0374891 0.037699 0.0379095 0.0381204 0.0383313
0.0385421 0.0387535 0.0389654 0.0391777 0.03939 0.0396021 0.0398148 0.0400279 0.0402412 0.0404545
0.0406676 0.0408811 0.0410949 0.0413087 0.0415225 0.041736 0.0419496 0.0421632 0.0423768 0.04259
0.042803 0.0430157 0.043228 0.0434399 0.0436515 0.0438627 0.0440731 0.0442826 0.0444916 0.0447002
0.0449084 0.0451152 0.0453204 0.0455252 0.0457295 0.0459335 0.0461353 0.0463352 0.0465348 0.046734
0.0469329 0.047129 0.0473233 0.0475174 0.0477112 0.0479048 0.0480951 0.0482841 0.0484729 0.0486618
0.0488505 0.0490356 0.0492203 0.049405 0.0495898 0.0497748 0.0499564 0.0501382 0.0503202 0.0505024
0.0506847 0.050865 0.0510455 0.0512262 0.051407 0.051588 0.0517682 0.0519486 0.052129 0.0523095
0.0524901 0.0526707 0.0528515 0.0530323 0.0532132 0.0533536 0.0534939 0.0536343 0.0537747 0.0539141
0.053955 0.0539958 0.0540367 0.0540776 0.0541185 0.0542999 0.0544813 0.0546627 0.0548441 0.0550255
0.0552073 0.055389 0.0555708 0.0557526 0.0559344 0.0561164 0.0562985 0.0564806 0.0566627 0.0568448
0.0570272 0.0572095 0.0573919 0.0575743 0.0577567 0.0579394 0.0581221 0.0583047 0.0584874 0.0586701
0.0588531 0.059036 0.059219 0.059402 0.0595849 0.0597682 0.0599515 0.0601348 0.060318 0.0605013
0.0606849 0.0608685 0.0610521 0.0612356 0.0614192 0.0616031 0.061787 0.0619709 0.0621547 0.0623386
0.0625228 0.0627069 0.0628911 0.0630752 0.0632594 0.0634438 0.0636283 0.0638127 0.0639971 0.0641815
0.0643662 0.0645509 0.0647355 0.0649202 0.0651049 0.0652898 0.0654747 0.0656596 0.0658444 0.0660293
0.0662144 0.0663995 0.0665846 0.0667697 0.0669548 0.0671401 0.0673255 0.0675109 0.0676963 0.0678818
0.0680672 0.0682528 0.0684383 0.0686239 0.0688095 0.0689951 0.0691808 0.0693665 0.0695522 0.0697379
0.0699236 0.0701094 0.0702953 0.0704811 0.0706669 0.0708527 0.0710387 0.0712246 0.0714105 0.0715964
0.0717824 0.0719684 0.0721544 0.0723404 0.0725264 0.0727125 0.0728986 0.0730846 0.0732707 0.0734568
0.0736429 0.0738291 0.0740152 0.0742013 0.0743875 0.0745737 0.0747598 0.074946 0.0751322 0.0753184
0.0755046 0.0756908 0.075877 0.0760632 0.0762494 0.0764356 0.0766218 0.076808 0.0769942 0.0771804
0.0773666 0.0775528 0.077739 0.0779252 0.0781114 0.0782976 0.0784837 0.0786699 0.0788561 0.0790423
0.0792285 0.0794146 0.0796008 0.079787 0.0799731 0.0801593 0.0803455 0.0805317 0.0807179 0.0809041
0.0810903 0.0812765 0.0814627 0.0816489 0.0818351 0.0820214 0.0822076 0.0823938 0.0825801 0.0827663
0.0829526 0.0831389 0.0833252 0.0835115 0.0836978 0.0838842 0.0840706 0.084257 0.0844433 0.0846297
0.0848162 0.0850027 0.0851891 0.0853756 0.0855621 0.0857487 0.0859352 0.0861218 0.0863084 0.0864949
0.0866816 0.0868683 0.0870549 0.0872416 0.0874283 0.087615 0.0878018 0.0879885 0.0881753 0.088362
0.0885488 0.0887357 0.0889225 0.0891093 0.0892961 0.0894831 0.08967 0.0898569 0.0900438 0.0902307
0.0904177 0.0906046 0.0907916 0.0909786 0.0911656 0.0913526 0.0915396 0.0917267 0.0919137 0.0921007
0.0922878 0.0924749 0.092662 0.0928491 0.0930362 0.0932234 0.0934105 0.0935977 0.0937848 0.093972
0.0941592 0.0943464 0.0945336 0.0947208 0.094908 0.0950953 0.0952825 0.0954698 0.0956571 0.0958443
0.0960316 0.0962189 0.0964063 0.0965936 0.0967809 0.0969682 0.0971557 0.0973432 0.0975306 0.0977181
0.0979056 0.0980932 0.0982808 0.0984684 0.0986561 0.0988437 0.0990316 0.0992195 0.0994074 0.0995953
0.0997832 0.0999716 0.10016 0.100348 0.100537 0.100725 0.100914 0.101104 0.101293 0.101482
0.101671 0.101862 0.102052 0.102243 0.102433 0.102623 0.102815 0.103007 0.103199 0.103391
0.103583 0.103776 0.103969 0.104162 0.104355 0.104548 0.104741 0.104935 0.105128 0.105322
0.105515 0.105709 0.105903 0.106096 0.10629 0.106483 0.106676 0.106869 0.107062 0.107255
0.107448 0.107641 0.107833 0.108026 0.108218 0.10841 0.108602 0.108793 0.108985 0.109176
0.109368 0.109559 0.109749 0.10994 0.110131 0.110321 0.110512 0.110702 0.110892 0.111082
0.111272 0.111461 0.111651 0.11184 0.11203 0.112219 0.112409 0.112598 0.112787 0.112976
0.113165 0.113354 0.113543 0.113732 0.113921 0.11411 0.114298 0.114487 0.114676 0.114864
0.115053 0.115241 0.11543 0.115618 0.115806 0.115995 0.116183 0.116371 0.11656 0.116748
0.116936 0.117124 0.117312 0.117501 0.117689 0.117877 0.118065 0.118253 0.118441 0.118629
0.118817 0.119005 0.119193 0.119381 0.119569 0.119757 0.119945 0.120133 0.120321 0.120509
0.120697 0.120885 0.121073 0.121261 0.121449 0.121637 0.121825 0.122013 0.122201 0.122389
0.122577 0.122764 0.122952 0.12314 0.123328 0.123516 0.123704 0.123892 0.124079 0.124267
0.124455 0.124643 0.124831 0.125018 0.125206 0.125394 0.125582 0.12577 0.125957 0.126145
0.126333 0.126521 0.126708 0.126896 0.127084 0.127272 0.127459 0.127647 0.127835 0.128023
0.12821 0.128398 0.128586 0.128773 0.128961 0.129149 0.129337 0.129524 0.129712 0.1299
0.130087 0.130275 0.130463 0.13065 0.130838 0.131026 0.131213 0.131401 0.131589 0.131776
0.131964 0.132152 0.132339 0.132527 0.132714 0.132902 0.13309 0.133277 0.133465 0.133653
0.13384 0.134028 0.134216 0.134403 0.134591 0.134778 0.134966 0.135154 0.135341 0.135529
0.135716 0.135904 0.136092 0.136279 0.136467 0.136654 0.136842 0.13703 0.137217 0.137405
0.137592 0.13778 0.137968 0.138155 0.138343 0.13853 0.138718 0.138905 0.139093 0.139281
0.139468 0.139656 0.139843 0.140031 0.140218 0.140406 0.140594 0.140781 0.140969 0.141156
0.141344 0.141531 0.141719 0.141907 0.142094 0.142282 0.142469 0.142657 0.142844 0.143032
0.143219 0.143407 0.143595 0.143782 0.14397 0.144157 0.144345 0.144532 0.14472 0.144907
0.145095 0.145283 0.14547 0.145658 0.145845 0.146033 0.14622 0.146408 0.146595 0.146783
0.14697 0.147158 0.147346 0.147533 0.147721 0.147908 0.148096 0.148283 0.148471 0.148658
0.148846 0.149034 0.149221 0.149409 0.149596 0.149784 0.149971 0.150159 0.150346 0.150534
0.150721 0.150909 0.151096 0.151284 0.151472 0.151847 0.152222 0.152597 0.152972 0.153347
0.154097 0.154847 0.155597 0.156347 0.157097 0.158598 0.160098 0.161598 0.163098 0.164598
0.166098 0.167598 0.169098 0.170598 0.172098 0.175098 0.178098 0.181098 0.184098 0.187099
0.193099 0.199099 0.205099 0.211099 0.217099 0.223099 0.229099 0.235099 0.241099 0.247099
0.253099 0.259099 0.265099 0.271099 0.277099 0.283099 0.289099 0.295099 0.301099 0.307099
0.313099 0.319099 0.325099 0.331099 0.337099 0.343099 0.349099 0.355099 0.361099 0.367099
0.373099 0.379099 0.3851 0.3911 0.3971 0.4031 0.409116 0.415149 0.421198 0.427264
0 7.37925e-05 0.000147589 0.00022139 0.000295195 0.000369004 0.000559903 0.000750838 0.000941809 0.00113281
0.00132386 0.00151493 0.00170605 0.0018972 0.00208839 0.00227962 0.00247089 0.00266219 0.00285354 0.00304492
0.00323635 0.00342781 0.00361932 0.00381087 0.00400247 0.0041941 0.00438578 0.00457751 0.00476928 0.0049611
0.00515296 0.00534487 0.00553683 0.00572884 0.00592089 0.006113 0.00630516 0.00649737 0.00668963 0.00688194
0.00707431 0.00726673 0.00745921 0.00765174 0.00784433 0.00803698 0.00822968 0.00842244 0.00861527 0.00880816
0.0090011 0.00919411 0.00938719 0.00958033 0.00977353 0.0099668 0.0101601 0.0103535 0.010547 0.0107406
0.0109342 0.0111279 0.0113216 0.0115155 0.0117094 0.0119034 0.0120975 0.0122916 0.0124859 0.0126802
0.0128746 0.0130691 0.0132636 0.0134583 0.013653 0.0138479 0.0140428 0.0142378 0.0144329 0.0146281
0.0148234 0.0150188 0.0152144 0.01541 0.0156057 0.0158015 0.0159974 0.0161935 0.0163896 0.0165859
0.0167822 0.0169787 0.0171753 0.0173721 0.0175689 0.0177659 0.017963 0.0181602 0.0183576 0.0185551
0.0187527 0.0189505 0.0191484 0.0193464 0.0195446 0.0197429 0.0199414 0.0201401 0.0203389 0.0205378
0.0207369 0.0209362 0.0211356 0.0213352 0.021535 0.021735 0.0219351 0.0221354 0.0223359 0.0225366
0.0227375 0.0229386 0.0231399 0.0233414 0.023543 0.0237449 0.0239471 0.0241494 0.024352 0.0245548
0.0247578 0.024961 0.0251645 0.0253683 0.0255723 0.0257766 0.0259811 0.0261859 0.026391 0.0265964
0.026802 0.027008 0.0272142 0.0274208 0.0276277 0.0278349 0.0280424 0.0282503 0.0284585 0.0286671
0.0288761 0.0290854 0.0292951 0.0295052 0.0297157 0.0299265 0.0301378 0.0303496 0.0305618 0.0307744
0.0309875 0.031201 0.0314151 0.0316296 0.0318446 0.0320601 0.0322762 0.0324928 0.03271 0.0329277
0.033146 0.0333649 0.0335844 0.0338045 0.0340253 0.0342467 0.0344687 0.0346915 0.034915 0.0351392
0.0353641 0.0355897 0.0358162 0.0360434 0.0362714 0.0365002 0.0367299 0.0369605 0.037192 0.0374244
0.0376577 0.0378919 0.0381271 0.0383633 0.0386006 0.0388389 0.0390782 0.0393187 0.0395603 0.0398031
0.040047 0.040292 0.0405382 0.0407857 0.0410344 0.0412844 0.0415358 0.0417885 0.0420425 0.0422979
0.0425548 0.0428128 0.0430722 0.0433327 0.0435947 0.0438584 0.0441234 0.0443897 0.0446572 0.0449258
0.0451965 0.0454678 0.0457397 0.0460122 0.0462853 0.0465611 0.0467025 0.0468441 0.0469855 0.0471268
0.0472102 0.0473561 0.0475018 0.0476474 0.0477928 0.0479392 0.0482144 0.0484878 0.0487595 0.0490292
0.0493023 0.0494598 0.049616 0.0497709 0.0499244 0.0500404 0.0501551 0.0502691 0.0503825 0.0504951
0.050608 0.0507907 0.0509707 0.051148 0.0513226 0.0514881 0.0515538 0.0516192 0.0516842 0.0517488
0.0518132 0.0518324 0.0518516 0.0518707 0.0518898 0.051909 0.0521154 0.0523172 0.0525147 0.052708
0.0528953 0.0530105 0.0531238 0.0532354 0.0533455 0.0534842 0.0535579 0.0536309 0.0537033 0.053775
0.0538457 0.054023 0.0541967 0.0543668 0.0545336 0.0546939 0.0548347 0.054974 0.0551118 0.055248
0.0554729 0.0554873 0.0555018 0.0555163 0.0555308 0.0555472 0.0556813 0.055815 0.0559481 0.0560806
0.0562118 0.0563572 0.0565028 0.0566486 0.0567945 0.0569403 0.0570863 0.0572326 0.0573792 0.0575262
0.0576735 0.0578213 0.0579694 0.058118 0.0582669 0.0584162 0.0585659 0.0587159 0.0588662 0.0590169
0.059168 0.0593194 0.0594712 0.0596233 0.0597758 0.0599286 0.0600817 0.0602352 0.060389 0.0605431
0.0606976 0.0608524 0.0610076 0.0611631 0.0613189 0.0614752 0.0616317 0.0617886 0.0619459 0.0621035
0.0622615 0.0624199 0.0625787 0.0627379 0.0628974 0.0630573 0.0632176 0.0633782 0.0635393 0.0637007
0.0638625 0.0640247 0.0641873 0.0643502 0.0645136 0.0646773 0.0648414 0.0650058 0.0651706 0.0653358
0.0655014 0.0656673 0.0658335 0.0660002 0.0661671 0.0663344 0.0665021 0.0666701 0.0668383 0.0670069
0.0671759 0.0673452 0.0675147 0.0676846 0.0678549 0.0680254 0.0681962 0.0683672 0.0685386 0.0687102
0.0688821 0.0690543 0.0692268 0.0693996 0.0695726 0.0697459 0.0699195 0.0700932 0.0702672 0.0704415
0.070616 0.0707908 0.0709658 0.0711411 0.0713166 0.0714923 0.0716683 0.0718444 0.0720208 0.0721973
0.0723741 0.0725511 0.0727284 0.0729058 0.0730834 0.0732612 0.0734393 0.0736174 0.0737958 0.0739743
0.074153 0.0743319 0.0745109 0.0746902 0.0748696 0.0750491 0.0752288 0.0754086 0.0755885 0.0757686
0.0759488 0.0761291 0.0763096 0.0764902 0.0766708 0.0768516 0.0770325 0.0772134 0.0773943 0.0775754
0.0777565 0.0779377 0.078119 0.0783003 0.0784817 0.0786631 0.0788445 0.0790259 0.0792074 0.0793888
0.0795703 0.0797518 0.0799334 0.0801149 0.0802964 0.080478 0.0806595 0.0808411 0.0810226 0.0812042
0.0813858 0.0815674 0.0817491 0.0819308 0.0821126 0.0822944 0.0824763 0.0826582 0.0828403 0.0830224
0.0832046 0.0833869 0.0835694 0.083752 0.0839347 0.0841176 0.0843006 0.0844837 0.084667 0.0848505
0.0850342 0.085218 0.0854021 0.0855863 0.0857707 0.0859554 0.0861402 0.0863252 0.0865103 0.0866957
0.0868813 0.0870671 0.0872531 0.0874393 0.0876257 0.0878123 0.0879991 0.0881861 0.0883733 0.0885606
0.0887481 0.0889359 0.0891237 0.0893118 0.0895001 0.0896885 0.0898771 0.0900658 0.0902548 0.0904439
0.0906331 0.0908225 0.0910121 0.0912018 0.0913916 0.0915816 0.0917718 0.0919621 0.0921525 0.0923431
0.0925338 0.0927246 0.0929155 0.0931066 0.0932977 0.093489 0.0936804 0.0938719 0.0940636 0.0942553
0.0944472 0.0946392 0.0948312 0.0950233 0.0952156 0.095408 0.0956004 0.095793 0.0959857 0.0961785
0.0963713 0.0965643 0.0967573 0.0969504 0.0971436 0.0973369 0.0975304 0.0977239 0.0979176 0.0981114
0.0983053 0.0984992 0.0986933 0.0988876 0.099082 0.0992766 0.0994715 0.0996666 0.0998621 0.100058
0.100254 0.100451 0.100648 0.100846 0.101044 0.101243 0.101442 0.101642 0.101842 0.102044
0.102247 0.102451 0.102657 0.102864 0.103074 0.103285 0.103499 0.103715 0.103934 0.104155
0.10438 0.104607 0.104838 0.105073 0.105311 0.105552 0.105797 0.106044 0.106295 0.10655
0.106807 0.107068 0.107332 0.1076 0.10787 0.108143 0.108418 0.108694 0.108973 0.109254
0.109538 0.109823 0.110111 0.1104 0.11069 0.110981 0.111271 0.111561 0.11185 0.112138
0.112427 0.11253 0.112632 0.112733 0.112835 0.112941 0.113125 0.113309 0.113493 0.113675
0.113857 0.113973 0.114089 0.114205 0.11432 0.114436 0.1146 0.114763 0.114925 0.115087
0.115249 0.115523 0.115795 0.116066 0.116334 0.116601 0.116867 0.117131 0.117393 0.117655
0.117913 0.118171 0.118426 0.118681 0.118933 0.119184 0.119434 0.119683 0.119931 0.120178
0.120423 0.120522 0.120621 0.120721 0.12082 0.12093 0.121071 0.121212 0.121353 0.121494
0.121634 0.121873 0.122112 0.122351 0.122588 0.122825 0.123061 0.123296 0.123531 0.123766
0.123999 0.124232 0.124465 0.124697 0.124928 0.125159 0.12539 0.12562 0.12585 0.126079
0.126308 0.126536 0.126764 0.126992 0.12722 0.127447 0.127674 0.1279 0.128126 0.128352
0.128577 0.128802 0.129027 0.129252 0.129477 0.129701 0.129925 0.130148 0.130372 0.130594
0.130817 0.13104 0.131262 0.131484 0.131706 0.131928 0.131947 0.131966 0.131985 0.132005
0.132023 0.132225 0.132427 0.132629 0.13283 0.133031 0.133251 0.133471 0.133691 0.13391
0.134129 0.134348 0.134566 0.134784 0.135002 0.13522 0.135437 0.135654 0.135871 0.136088
0.136304 0.13652 0.136735 0.136951 0.137166 0.137381 0.137595 0.137809 0.138023 0.138237
0.13845 0.138636 0.138822 0.139007 0.139192 0.139412 0.139432 0.139452 0.139472 0.139492
0.139512 0.139724 0.139935 0.140145 0.140355 0.140564 0.140772 0.140981 0.141188 0.141395
0.141602 0.141808 0.142014 0.142219 0.142424 0.142629 0.142833 0.143037 0.14324 0.143443
0.143646 0.143848 0.14405 0.144252 0.144454 0.144655 0.144855 0.145056 0.145256 0.145456
0.145656 0.145855 0.146055 0.146254 0.146453 0.146651 0.146849 0.147048 0.147246 0.147443
0.147641 0.147838 0.148035 0.148232 0.148429 0.148626 0.148822 0.149019 0.149215 0.149411
0.149607 0.149802 0.149998 0.150193 0.150389 0.150584 0.150779 0.150974 0.151169 0.151364
0.151558 0.151753 0.151947 0.152142 0.152336 0.15253 0.152724 0.152918 0.153112 0.153306
0.1535 0.153693 0.153887 0.154081 0.154274 0.154467 0.154661 0.154854 0.155047 0.15524
0.155433 0.155626 0.155819 0.156012 0.156205 0.156398 0.156591 0.156783 0.156976 0.157168
0.157361 0.157553 0.157746 0.157938 0.158131 0.158323 0.158515 0.158707 0.1589 0.159092
0.159284 0.159476 0.159668 0.15986 0.160052 0.160244 0.160436 0.160628 0.16082 0.161012
0.161204 0.161396 0.161588 0.16178 0.161971 0.162163 0.162547 0.162931 0.163315 0.163698
0.16408 0.164841 0.165602 0.166362 0.167123 0.167883 0.169394 0.170899 0.172404 0.173909
0.175415 0.17692 0.178424 0.179928 0.181433 0.182937 0.185945 0.188954 0.191962 0.19497
0.197979 0.203985 0.209991 0.215998 0.222004 0.22801 0.234012 0.240015 0.246017 0.25202
0.258022 0.264024 0.270027 0.276029 0.282031 0.288033 0.294035 0.300037 0.306039 0.312041
0.318044 0.324046 0.330048 0.33605 0.342052 0.348054 0.354056 0.360058 0.36606 0.372062
0.378064 0.384066 0.390068 0.39607 0.402072 0.408074 0.414076 0.420094 0.426129 0.43218
0.438248 0 7.37694e-05 0.000147544 0.000221323 0.000295108 0.000368897 0.000559744 0.000750627 0.000941544
0.0011325 0.00132348 0.00151451 0.00170557 0.00189666 0.0020878 0.00227897 0.00247017 0.00266142 0.00285271
0.00304403 0.0032354 0.0034268 0.00361825 0.00380974 0.00400127 0.00419285 0.00438446 0.00457613 0.00476783
0.00495958 0.00515138 0.00534323 0.00553512 0.00572706 0.00591905 0.00611108 0.00630317 0.00649531 0.0066875
0.00687974 0.00707204 0.00726438 0.00745678 0.00764924 0.00784176 0.00803433 0.00822695 0.00841964 0.00861239
0.00880519 0.00899806 0.00919099 0.00938398 0.00957703 0.00977015 0.00996334 0.0101566 0.0103499 0.0105433
0.0107368 0.0109303 0.0111239 0.0113176 0.0115113 0.0117051 0.011899 0.012093 0.0122871 0.0124812
0.0126754 0.0128697 0.0130641 0.0132586 0.0134531 0.0136478 0.0138425 0.0140373 0.0142322 0.0144272
0.0146223 0.0148175 0.0150128 0.0152082 0.0154037 0.0155993 0.015795 0.0159908 0.0161868 0.0163828
0.0165789 0.0167752 0.0169716 0.017168 0.0173646 0.0175614 0.0177582 0.0179552 0.0181523 0.0183495
0.0185469 0.0187444 0.018942 0.0191398 0.0193378 0.0195358 0.019734 0.0199324 0.0201309 0.0203296
0.0205284 0.0207274 0.0209266 0.0211259 0.0213254 0.0215251 0.021725 0.0219251 0.0221253 0.0223257
0.0225264 0.0227272 0.0229283 0.0231295 0.023331 0.0235328 0.0237347 0.0239369 0.0241393 0.024342
0.0245449 0.0247481 0.0249515 0.0251552 0.0253592 0.0255635 0.025768 0.0259729 0.026178 0.0263834
0.0265892 0.0267952 0.0270016 0.0272083 0.0274153 0.0276227 0.0278304 0.0280385 0.0282469 0.0284557
0.0286648 0.0288744 0.0290843 0.0292946 0.0295053 0.0297165 0.029928 0.02993 0.029932 0.029934
0.029936 0.029938 0.030148 0.0303584 0.0305693 0.0307806 0.0309924 0.0312067 0.0314215 0.0316368
0.0318526 0.032069 0.0322859 0.0325034 0.0327214 0.0329401 0.0331594 0.0333792 0.0335998 0.033821
0.0340429 0.0342656 0.0344889 0.034713 0.034938 0.0351637 0.0353903 0.0356176 0.0358459 0.0360751
0.0363053 0.0365365 0.0367686 0.0370019 0.0372363 0.0374718 0.0377084 0.0379463 0.0381854 0.0384259
0.0386677 0.038911 0.0391556 0.039402 0.03965 0.0398998 0.0401512 0.0404043 0.0406593 0.0409165
0.0411757 0.0414371 0.0417005 0.0419666 0.0422353 0.0425067 0.0427807 0.0430582 0.0433387 0.0436226
0.04391 0.0442011 0.0444951 0.0447933 0.045096 0.045403 0.0457157 0.0460308 0.0463508 0.0466755
0.0470052 0.0473453 0.0475716 0.0478007 0.0480321 0.0482655 0.0483364 0.0484959 0.0486561 0.0488171
0.0489787 0.0491455 0.0494995 0.0498564 0.0502156 0.0505734 0.05065 0.0507386 0.0508271 0.0509154
0.0510034 0.0510941 0.0513268 0.0515566 0.0517834 0.052007 0.0521423 0.0523274 0.0525096 0.0526888
0.0528653 0.0530509 0.0530963 0.0531415 0.0531865 0.0532313 0.0532737 0.053369 0.0534629 0.0534917
0.0535841 0.0542389 0.0543541 0.0544677 0.0545795 0.0546887 0.0547979 0.0548449 0.0548918 0.0549384