# vtk DataFile Version 2.0
tracks
ASCII
DATASET POLYDATA
POINTS 19613 float
-1.001 1e-07 0.0011 -0.99955 9.85522e-08 0.00110002 -0.9981 9.71045e-08 0.00110004 -0.99665 9.56569e-08
0.00110007 -0.9952 9.42094e-08 0.0011001 -0.99375 9.2762e-08 0.00110014 -0.99 8.90008e-08 0.00110023
-0.98625 8.52557e-08 0.00110033 -0.9825 8.15097e-08 0.00110043 -0.97875 7.77598e-08 0.00110054 -0.975
7.40036e-08 0.00110067 -0.97125 7.0227e-08 0.00110082 -0.9675 6.64631e-08 0.00110097 -0.96375 6.2698e-08
0.00110112 -0.96 5.89313e-08 0.00110127 -0.95625 5.51627e-08 0.00110143 -0.9525 5.13872e-08 0.0011016
-0.94875 4.76155e-08 0.00110177 -0.945 4.38425e-08 0.00110194 -0.94125 4.00704e-08 0.00110211 -0.9375
3.63011e-08 0.00110228 -0.93375 3.2528e-08 0.00110246 -0.93 2.87605e-08 0.00110264 -0.92625 2.49916e-08
0.00110281 -0.9225 2.12213e-08 0.00110299 -0.91875 1.74494e-08 0.00110317 -0.915285 1.39595e-08 0.00110334
-0.91182 1.04717e-08 0.00110351 -0.908355 6.98262e-09 0.00110368 -0.90489 3.48975e-09 0.00110385 -0.901437
1.84594e-17 0.00110402 -0.90115 -2.91385e-10 0.00110404 -0.900862 -5.82836e-10 0.00110405 -0.900575 -8.74354e-10
0.00110407 -0.900288 -1.16594e-09 0.00110408 -0.9 -1.45759e-09 0.0011041 -0.89625 -5.26265e-09 0.00110429
-0.8925 -9.08081e-09 0.00110449 -0.88875 -1.2912e-08 0.00110469 -0.885 -1.67506e-08 0.00110489 -0.88125
-2.05907e-08 0.00110509 -0.8775 -2.44281e-08 0.0011053 -0.87375 -2.82749e-08 0.0011055 -0.87 -3.21267e-08
0.00110572 -0.86625 -3.5982e-08 0.00110593 -0.8625 -3.98387e-08 0.00110615 -0.85875 -4.36887e-08 0.00110636
-0.855 -4.75529e-08 0.00110658 -0.85125 -5.14228e-08 0.00110681 -0.8475 -5.52964e-08 0.00110704 -0.84375
-5.91716e-08 0.00110726 -0.84 -6.30444e-08 0.00110749 -0.83625 -6.69369e-08 0.00110773 -0.8325 -7.08445e-08
0.00110797 -0.82875 -7.47609e-08 0.00110821 -0.825 -7.8679e-08 0.00110845 -0.82125 -8.2581e-08 0.0011087
-0.8175 -8.65342e-08 0.00110895 -0.81375 -9.052e-08 0.0011092 -0.81 -9.45239e-08 0.00110946 -0.80625
-9.85298e-08 0.00110972 -0.8025 -1.02514e-07 0.00110998 -0.79875 -1.06568e-07 0.00111025 -0.795 -1.10667e-07
0.00111053 -0.79125 -1.14791e-07 0.0011108 -0.7875 -1.18917e-07 0.00111108 -0.78375 -1.23038e-07 0.00111136
-0.78 -1.27214e-07 0.00111165 -0.77625 -1.31436e-07 0.00111194 -0.7725 -1.35684e-07 0.00111224 -0.76875
-1.39934e-07 0.00111254 -0.765 -1.44178e-07 0.00111283 -0.76125 -1.48479e-07 0.00111314 -0.7575 -1.52829e-07
0.00111346 -0.75375 -1.57205e-07 0.00111378 -0.75 -1.61584e-07 0.00111409 -0.74625 -1.65921e-07 0.00111441
-0.7425 -1.70358e-07 0.00111474 -0.73875 -1.74849e-07 0.00111508 -0.735 -1.7937e-07 0.00111542 -0.73125
-1.83894e-07 0.00111577 -0.7275 -1.88367e-07 0.00111611 -0.72375 -1.92959e-07 0.00111646 -0.72 -1.97614e-07
0.00111682 -0.71625 -2.02305e-07 0.00111719 -0.7125 -2.06998e-07 0.00111756 -0.70875 -2.1163e-07 0.00111793
-0.705 -2.16402e-07 0.00111831 -0.70125 -2.21244e-07 0.0011187 -0.6975 -2.26127e-07 0.00111909 -0.69375
-2.31013e-07 0.00111949 -0.69 -2.35891e-07 0.00111989 -0.68625 -2.40864e-07 0.00112029 -0.6825 -2.45915e-07
0.00112071 -0.67875 -2.51012e-07 0.00112114 -0.675 -2.56112e-07 0.00112156 -0.67125 -2.61204e-07 0.00112199
-0.6675 -2.66403e-07 0.00112243 -0.66375 -2.71692e-07 0.00112288 -0.66 -2.77033e-07 0.00112334 -0.65625
-2.82379e-07 0.0011238 -0.6525 -2.87621e-07 0.00112425 -0.64875 -2.9308e-07 0.00112473 -0.645 -2.9864e-07
0.00112521 -0.64125 -3.04259e-07 0.0011257 -0.6375 -3.09884e-07 0.0011262 -0.63375 -3.15501e-07 0.00112669
-0.63 -3.21243e-07 0.0011272 -0.62625 -3.2709e-07 0.00112772 -0.6225 -3.32999e-07 0.00112825 -0.61875
-3.38913e-07 0.00112878 -0.615 -3.4482e-07 0.00112931 -0.61125 -3.50862e-07 0.00112985 -0.6075 -3.57014e-07
0.00113041 -0.60375 -3.63233e-07 0.00113098 -0.6 -3.69459e-07 0.00113155 -0.59625 -3.75679e-07 0.00113212
-0.5925 -3.81931e-07 0.00113269 -0.58875 -3.8819e-07 0.00113326 -0.585 -3.94523e-07 0.00113384 -0.58125
-4.00978e-07 0.00113444 -0.5775 -4.07349e-07 0.00113505 -0.57375 -4.13952e-07 0.00113567 -0.57 -4.20563e-07
0.00113628 -0.56625 -4.27251e-07 0.00113691 -0.5625 -4.34067e-07 0.00113755 -0.55875 -4.40767e-07 0.00113821
-0.555 -4.47741e-07 0.00113886 -0.55125 -4.54723e-07 0.00113952 -0.5475 -4.61786e-07 0.0011402 -0.54375
-4.68977e-07 0.00114088 -0.54 -4.7629e-07 0.00114159 -0.53625 -4.83646e-07 0.0011423 -0.5325 -4.91011e-07
0.00114301 -0.52875 -4.9846e-07 0.00114373 -0.525 -5.06041e-07 0.00114446 -0.52125 -5.13413e-07 0.00114522
-0.5175 -5.21171e-07 0.00114598 -0.51375 -5.28938e-07 0.00114674 -0.51 -5.36799e-07 0.00114751 -0.50625
-5.44805e-07 0.00114829 -0.5025 -5.52552e-07 0.0011491 -0.49875 -5.60755e-07 0.00114991 -0.495 -5.68971e-07
0.00115072 -0.49125 -5.77291e-07 0.00115154 -0.4875 -5.85769e-07 0.00115238 -0.48375 -5.94412e-07 0.00115324
-0.48 -6.03113e-07 0.0011541 -0.47625 -6.11829e-07 0.00115496 -0.4725 -6.20655e-07 0.00115583 -0.46875
-6.29649e-07 0.00115672 -0.465 -6.38823e-07 0.00115763 -0.46125 -6.48061e-07 0.00115854 -0.4575 -6.57316e-07
0.00115945 -0.45375 -6.66689e-07 0.00116037 -0.45 -6.76238e-07 0.00116131 -0.44625 -6.85982e-07 0.00116226
-0.4425 -6.958e-07 0.00116322 -0.43875 -7.05636e-07 0.00116417 -0.435 -7.15599e-07 0.00116513 -0.43125
-7.25745e-07 0.00116611 -0.4275 -7.35261e-07 0.0011671 -0.42375 -7.45704e-07 0.00116808 -0.42 -7.56169e-07
0.00116907 -0.41625 -7.66765e-07 0.00117007 -0.4125 -7.77549e-07 0.00117107 -0.40875 -7.87543e-07 0.00117208
-0.405 -7.9865e-07 0.00117309 -0.40125 -8.09782e-07 0.0011741 -0.3975 -8.21047e-07 0.00117511 -0.39375
-8.32498e-07 0.00117612 -0.39 -8.44198e-07 0.00117712 -0.38625 -8.56003e-07 0.00117813 -0.3825 -8.67835e-07
0.00117914 -0.37875 -8.79801e-07 0.00118013 -0.375 -8.91949e-07 0.00118112 -0.37125 -9.04365e-07 0.00118208
-0.3675 -9.16899e-07 0.00118305 -0.36375 -9.29464e-07 0.00118402 -0.36 -9.42171e-07 0.00118496 -0.35625
-9.55065e-07 0.00118586 -0.3525 -9.6644e-07 0.00118673 -0.34875 -9.79765e-07 0.0011876 -0.345 -9.93126e-07
0.00118847 -0.34125 -1.00663e-06 0.0011893 -0.3375 -1.0203e-06 0.00119006 -0.33375 -1.03431e-06 0.00119075
-0.33 -1.04847e-06 0.00119145 -0.32625 -1.06267e-06 0.00119215 -0.3225 -1.07699e-06 0.00119277 -0.31875
-1.09146e-06 0.00119329 -0.315 -1.10629e-06 0.0011937 -0.31125 -1.12128e-06 0.00119412 -0.3075 -1.13631e-06
0.00119453 -0.30375 -1.15145e-06 0.00119484 -0.3 -1.16674e-06 0.00119498 -0.29625 -1.17913e-06 0.00119497
-0.2925 -1.19504e-06 0.00119472 -0.28875 -1.21105e-06 0.00119424 -0.285 -1.22715e-06 0.00119359 -0.28125
-1.24329e-06 0.00119293 -0.2775 -1.2558e-06 0.00119228 -0.27375 -1.27243e-06 0.0011913 -0.27 -1.28906e-06
0.00118998 -0.26625 -1.30569e-06 0.00118842 -0.2625 -1.32236e-06 0.00118686 -0.25875 -1.33463e-06 0.0011853
-0.255 -1.35176e-06 0.00118326 -0.25125 -1.36877e-06 0.00118074 -0.2475 -1.38571e-06 0.00117789 -0.24375
-1.40268e-06 0.00117504 -0.24 -1.42016e-06 0.0011722 -0.23625 -1.43756e-06 0.00116873 -0.2325 -1.45469e-06
0.00116463 -0.22875 -1.47166e-06 0.00116011 -0.225 -1.48865e-06 0.00115561 -0.22125 -1.4993e-06 0.00115114
-0.2175 -1.51636e-06 0.0011458 -0.21375 -1.53282e-06 0.0011396 -0.21 -1.54891e-06 0.0011329 -0.20625
-1.56501e-06 0.00112625 -0.2025 -1.57372e-06 0.00111964 -0.19875 -1.58999e-06 0.00111182 -0.195 -1.60533e-06
0.0011028 -0.19125 -1.62018e-06 0.0010932 -0.1875 -1.63504e-06 0.0010837 -0.18375 -1.65044e-06 0.00107429
-0.18 -1.66454e-06 0.00106335 -0.17625 -1.67721e-06 0.00105091 -0.1725 -1.6893e-06 0.00103795 -0.16875
-1.70141e-06 0.00102518 -0.165 -1.71432e-06 0.00101258 -0.16125 -1.7253e-06 0.000998197 -0.1575 -1.73429e-06
0.000982074 -0.15375 -1.7428e-06 0.000965712 -0.15 -1.75139e-06 0.000949653 -0.14625 -1.7609e-06 0.000933888
-0.1425 -1.76678e-06 0.000916125 -0.13875 -1.76912e-06 0.000896427 -0.135 -1.77134e-06 0.000876992 -0.13125
-1.77378e-06 0.000858014 -0.1275 -1.76492e-06 0.000839481 -0.12375 -1.76469e-06 0.00081888 -0.12 -1.76155e-06
0.000796623 -0.11625 -1.7588e-06 0.000775008 -0.1125 -1.75644e-06 0.000754015 -0.10875 -1.74268e-06 0.00073362
-0.105 -1.7349e-06 0.000711201 -0.10125 -1.72351e-06 0.000687822 -0.0975 -1.71281e-06 0.000665236 -0.0937499
-1.70278e-06 0.000643415 -0.0899999 -1.69394e-06 0.000622327 -0.0862499 -1.68154e-06 0.000599705 -0.0824999 -1.66838e-06
0.000577019 -0.0787499 -1.65607e-06 0.000555196 -0.0749999 -1.64457e-06 0.000534202 -0.0712499 -1.63418e-06 0.000514002
-0.0674999 -1.62436e-06 0.000493716 -0.0637499 -1.61532e-06 0.000474078 -0.0599999 -1.60699e-06 0.000455209 -0.0562499
-1.59936e-06 0.000437078 -0.0524999 -1.58192e-06 0.000419654 -0.0487498 -1.56929e-06 0.000404572 -0.0449998 -1.55737e-06
0.000390014 -0.0412498 -1.54614e-06 0.000375964 -0.0374998 -1.53559e-06 0.000362405 -0.0337498 -1.52572e-06 0.000349318
-0.0299998 -1.50998e-06 0.000340685 -0.0262498 -1.49474e-06 0.000332256 -0.0224998 -1.47999e-06 0.000324028 -0.0187499
-1.46572e-06 0.000315996 -0.0149999 -1.45176e-06 0.000308156 -0.0112499 -1.43711e-06 0.000304723 -0.0074999 -1.42262e-06
0.000301327 -0.00374991 -1.4083e-06 0.000297968 6.11907e-08 -1.39414e-06 0.000294645 0.00375005 -1.37269e-06 0.000291357
0.00750005 -1.35775e-06 0.000288107 0.01125 -1.34297e-06 0.000284892 0.015 -1.32835e-06 0.000281712 0.01875
-1.31389e-06 0.000278565 0.0225 -1.29475e-06 0.000277523 0.02625 -1.28092e-06 0.000276484 0.03 -1.2671e-06
0.00027545 0.03375 -1.25329e-06 0.000274419 0.0375 -1.23949e-06 0.000273392 0.04125 -1.2186e-06 0.000272898
0.045 -1.20195e-06 0.000272405 0.04875 -1.18527e-06 0.000271913 0.0525 -1.16857e-06 0.000271422 0.05625
-1.15185e-06 0.000270932 0.06 -1.13173e-06 0.000270726 0.06375 -1.11105e-06 0.000270522 0.0675 -1.09033e-06
0.000270317 0.07125 -1.06956e-06 0.000270113 0.075 -1.04875e-06 0.000269909 0.07875 -1.02107e-06 0.000269853
0.0825 -9.96081e-07 0.000269798 0.08625 -9.71028e-07 0.000269743 0.09 -9.45915e-07 0.000269689 0.09375
-9.20742e-07 0.000269634 0.0975 -8.90096e-07 0.00026963 0.10125 -8.61652e-07 0.000269626 0.105 -8.33138e-07
0.000269623 0.10875 -8.04554e-07 0.000269619 0.1125 -7.75899e-07 0.000269616 0.11625 -7.50329e-07 0.000269624
[...]
POINT_DATA 19613
FIELD attributes 3
age 1 19613 float
0 7.30131e-05 0.00014603 0.00021905 0.000292074 0.000365102 0.000553977 0.000742851 0.000931726 0.00112062 0.00130954
0.0014985 0.00168745 0.00187641 0.00206538 0.00225439 0.00244343 0.00263248 0.00282152 0.00301058 0.00319968
0.00338881 0.00357795 0.00376709 0.00395624 0.00414544 0.00432029 0.00449515 0.00467001 0.00484487 0.00501914
0.00503366 0.00504817 0.00506269 0.0050772 0.00509172 0.00528106 0.00547045 0.00565988 0.00584934 0.00603879
0.00622825 0.00641776 0.00660731 0.00679689 0.00698647 0.00717605 0.00736568 0.00755537 0.00774508 0.00793479
0.00812451 0.00831427 0.0085041 0.00869395 0.00888381 0.00907366 0.00926358 0.00945355 0.00964356 0.00983357
0.0100236 0.0102136 0.0104038 0.010594 0.0107841 0.0109743 0.0111645 0.0113549 0.0115452 0.0117356
0.0119259 0.0121163 0.0123068 0.0124974 0.0126879 0.0128785 0.0130691 0.0132598 0.0134505 0.0136413
0.0138321 0.0140229 0.0142138 0.0144048 0.0145958 0.0147868 0.0149778 0.015169 0.0153602 0.0155514
0.0157427 0.015934 0.0161254 0.0163169 0.0165084 0.0166999 0.0168915 0.0170832 0.017275 0.0174668
0.0176586 0.0178505 0.0180425 0.0182346 0.0184267 0.0186188 0.0188111 0.0190034 0.0191959 0.0193883
0.0195808 0.0197734 0.0199661 0.0201589 0.0203518 0.0205446 0.0207374 0.0209303 0.0211232 0.0213163
0.0215095 0.0217028 0.021896 0.0220894 0.0222829 0.0224766 0.0226703 0.022864 0.0230579 0.0232519
0.0234461 0.0236403 0.0238345 0.0240289 0.0242234 0.0244182 0.0246129 0.0248077 0.0250026 0.0251978
0.0253931 0.0255885 0.0257839 0.0259794 0.0261752 0.0263713 0.0265673 0.0267634 0.0269596 0.0271562
0.0273529 0.0275497 0.0277466 0.0279436 0.0281409 0.0283385 0.0285361 0.0287337 0.0289316 0.0291298
0.0293283 0.0295269 0.0297254 0.0299242 0.0301234 0.0303229 0.0305224 0.030722 0.0309218 0.0311221
0.0313227 0.0315233 0.031724 0.031925 0.0321264 0.0323282 0.0325301 0.032732 0.0329342 0.0331369
0.0333401 0.0335433 0.0337465 0.0339501 0.0341542 0.0343588 0.0345635 0.0347681 0.0349732 0.0351788
0.0353849 0.0355911 0.0357973 0.0360039 0.0362111 0.0364188 0.0366272 0.0368361 0.0370455 0.0372549
0.0374643 0.0376743 0.0378848 0.0380958 0.0383067 0.0385176 0.0387291 0.0389411 0.0391534 0.0393657
0.0395779 0.0397906 0.0400037 0.0402171 0.0404304 0.0406435 0.040857 0.0410708 0.0412846 0.0414983
0.0417118 0.0419253 0.0421388 0.0423522 0.0425654 0.0427783 0.0429908 0.0432028 0.0434145 0.0436258
0.0438368 0.0440469 0.0442561 0.0444648 0.044673 0.0448809 0.0450872 0.0452921 0.0454964 0.0457004
0.0459039 0.0461053 0.0463048 0.0465039 0.0467027 0.0469012 0.0470969 0.0472907 0.0474843 0.0476777
0.047871 0.0480608 0.0482493 0.0484377 0.0486262 0.0488146 0.0489993 0.0491835 0.0493679 0.0495523
0.0497369 0.0499182 0.0500996 0.0502813 0.0504631 0.0506452 0.0508251 0.0510053 0.0511856 0.0513661
0.0515467 0.0517267 0.0519067 0.0520868 0.052267 0.0524472 0.0526276 0.052808 0.0529885 0.053169
0.0533497 0.0535304 0.0537111 0.0538919 0.0540726 0.0542537 0.0544348 0.0546159 0.054797 0.0549781
0.0551595 0.055341 0.0555224 0.0557039 0.0558853 0.0560671 0.0562489 0.0564306 0.0566124 0.0567942
0.0569762 0.0571583 0.0573404 0.0575224 0.0577045 0.0578868 0.0580692 0.0582516 0.0584339 0.0586163
0.0587989 0.0589815 0.0591642 0.0593468 0.0595295 0.0597124 0.0598954 0.0600783 0.0602613 0.0604442
0.0606275 0.0608107 0.060994 0.0611772 0.0613605 0.061544 0.0617276 0.0619111 0.0620947 0.0622783
0.0624621 0.0626459 0.0628298 0.0630136 0.0631975 0.0633816 0.0635657 0.0637498 0.0639339 0.0641181
0.0643024 0.0644868 0.0646712 0.0648555 0.0650399 0.0652245 0.0654091 0.0655937 0.0657783 0.0659629
0.0661477 0.0663325 0.0665174 0.0667022 0.066887 0.067072 0.0672572 0.0674423 0.0676275 0.0678127
0.0679978 0.0681832 0.0683685 0.0685538 0.0687391 0.0689245 0.0691099 0.0692954 0.0694809 0.0696663
0.0698518 0.0700374 0.0702229 0.0704085 0.0705941 0.0707797 0.0709654 0.071151 0.0713367 0.0715224
0.0716504 0.0717785 0.0719066 0.0720347 0.0722116 0.0722595 0.0723074 0.0723553 0.0724033 0.0724512
0.0726369 0.0728227 0.0730086 0.0731944 0.0733802 0.073566 0.0737519 0.0739378 0.0741236 0.0743095
0.0744953 0.0746812 0.0748671 0.075053 0.0752389 0.0754247 0.0756106 0.0757965 0.0759823 0.0761682
0.0763541 0.0765399 0.0767258 0.0769116 0.0770975 0.0772833 0.0774691 0.077655 0.0778408 0.0780266
0.0782124 0.0783982 0.0785839 0.0787697 0.0789554 0.0791412 0.0793269 0.0795127 0.0796984 0.0798841
0.0800698 0.0802555 0.0804413 0.080627 0.0808127 0.0809984 0.0811841 0.0813698 0.0815555 0.0817412
0.081927 0.0821127 0.0822984 0.0824841 0.0826698 0.0828556 0.0830413 0.0832271 0.0834128 0.0835986
0.0837844 0.0839702 0.084156 0.0843418 0.0845276 0.0847135 0.0848994 0.0850853 0.0852711 0.085457
0.0856429 0.0858289 0.0860148 0.0862007 0.0863867 0.0865726 0.0867586 0.0869446 0.0871306 0.0873166
0.0875027 0.0876887 0.0878747 0.0880608 0.0882468 0.0884329 0.088619 0.0888051 0.0889912 0.0891773
0.0893634 0.0895495 0.0897357 0.0899218 0.0901079 0.0902941 0.0904803 0.0906664 0.0908526 0.0910388
0.091225 0.0914112 0.0915974 0.0917836 0.0919698 0.092156 0.0923422 0.0925285 0.0927147 0.0929009
0.0930872 0.0932734 0.0934597 0.0936459 0.0938322 0.0940185 0.0942048 0.0943911 0.0945773 0.0947636
0.0949499 0.0951363 0.0953226 0.0955089 0.0956952 0.0958815 0.0960679 0.0962542 0.0964406 0.0966269
0.0968133 0.0969997 0.0971861 0.0973726 0.097559 0.0977454 0.0979319 0.0981183 0.0983048 0.0984913
0.0986777 0.0988642 0.0990507 0.0992372 0.0994237 0.0996102 0.0997966 0.0999831 0.10017 0.100356
0.100543 0.100729 0.100915 0.101102 0.101288 0.101475 0.101661 0.101848 0.102034 0.102221
0.102408 0.102594 0.102781 0.102968 0.103155 0.103342 0.103529 0.103716 0.103903 0.104091
0.104278 0.104466 0.104654 0.104841 0.105029 0.105217 0.105406 0.105594 0.105783 0.105972
0.10616 0.10635 0.106539 0.106729 0.106918 0.107108 0.107298 0.107489 0.107679 0.10787
0.10806 0.108251 0.108443 0.108634 0.108825 0.109016 0.109208 0.1094 0.109592 0.109784
0.109975 0.110168 0.11036 0.110552 0.110744 0.110936 0.111129 0.111321 0.111513 0.111706
0.111898 0.11209 0.112283 0.112475 0.112667 0.11286 0.113052 0.113245 0.113437 0.113629
0.113738 0.113846 0.113954 0.114063 0.114172 0.114256 0.11434 0.114424 0.114507 0.114591
0.114784 0.114976 0.115168 0.115361 0.115553 0.115745 0.115937 0.11613 0.116322 0.116514
0.116706 0.116899 0.117091 0.117283 0.117475 0.117668 0.11786 0.118052 0.118244 0.118436
0.118628 0.11882 0.119013 0.119205 0.119397 0.119589 0.119781 0.119973 0.120165 0.120357
0.120549 0.120741 0.120933 0.121125 0.121317 0.121509 0.121701 0.121893 0.122085 0.122277
0.122469 0.12266 0.122852 0.123044 0.123236 0.123428 0.123619 0.123811 0.124003 0.124195
0.124386 0.124578 0.12477 0.124961 0.125153 0.125344 0.125536 0.125727 0.125919 0.12611
0.126302 0.126493 0.126685 0.126876 0.127067 0.127258 0.12745 0.127641 0.127832 0.128024
0.128215 0.128406 0.128597 0.128788 0.128979 0.12917 0.129361 0.129552 0.129743 0.129934
0.130124 0.130315 0.130506 0.130697 0.130887 0.131078 0.131268 0.131459 0.131649 0.13184
0.13203 0.132221 0.132411 0.132601 0.132791 0.132982 0.133172 0.133362 0.133552 0.133742
0.133932 0.134122 0.134312 0.134502 0.134692 0.134882 0.135071 0.135261 0.135451 0.135641
0.13583 0.13602 0.136209 0.136399 0.136588 0.136778 0.136967 0.137156 0.137346 0.137535
0.137724 0.137914 0.138103 0.138292 0.138481 0.13867 0.138859 0.139048 0.139237 0.139426
0.139615 0.139804 0.139993 0.140182 0.140371 0.14056 0.140748 0.140937 0.141126 0.141315
0.141503 0.141692 0.141881 0.142069 0.142258 0.142446 0.142635 0.142823 0.143012 0.1432
0.143389 0.143577 0.143766 0.143954 0.144143 0.144331 0.144519 0.144708 0.144896 0.145084
0.145272 0.145461 0.145649 0.145837 0.146025 0.146214 0.146402 0.14659 0.146778 0.146966
0.147154 0.147342 0.147531 0.147719 0.147907 0.148095 0.148283 0.148471 0.148659 0.148847
0.149035 0.149223 0.149411 0.149599 0.149787 0.149975 0.150163 0.150351 0.150539 0.150727
0.150915 0.151102 0.15129 0.151478 0.151666 0.152042 0.152418 0.152793 0.153169 0.153545
0.154295 0.155046 0.155796 0.156547 0.157297 0.158798 0.160298 0.161798 0.163299 0.164799
0.166299 0.167799 0.169299 0.1708 0.1723 0.1753 0.1783 0.181301 0.184301 0.187301
0.193301 0.199301 0.205302 0.211302 0.217302 0.223302 0.229302 0.235302 0.241302 0.247302
0.253302 0.259302 0.265302 0.271302 0.277303 0.283303 0.289303 0.295303 0.301303 0.307303
0.313303 0.319303 0.325303 0.331303 0.337303 0.343303 0.349303 0.355303 0.361303 0.367303
0.373303 0.379303 0.385303 0.391303 0.397303 0.403303 0.4034 0 7.36834e-05 0.000147371
0.000221062 0.000294757 0.000368456 0.00055907 0.000749717 0.000940398 0.00113111 0.00132186 0.0014963 0.00167077
0.00184526 0.00201979 0.00219936 0.00221471 0.00223007 0.00224543 0.00226078 0.00227614 0.0024671 0.00265809
0.00284913 0.0030402 0.00323131 0.00342246 0.00361364 0.00380487 0.00399614 0.00418745 0.0043788 0.00457019
0.00476163 0.00495311 0.00514463 0.0053362 0.00552781 0.00571947 0.00591118 0.00610293 0.00629473 0.00648658
0.00667848 0.00687042 0.00706242 0.00725447 0.00744657 0.00763873 0.00783094 0.0080232 0.00821552 0.00840789
0.00860032 0.00879281 0.00898536 0.00917797 0.00937063 0.00956336 0.00975616 0.00994901 0.0101419 0.0103349
0.010528 0.0107211 0.0109143 0.0111075 0.0113008 0.0114942 0.0116877 0.0118812 0.0120749 0.0122685
0.0124623 0.0126562 0.0128501 0.0130441 0.0132382 0.0134324 0.0136266 0.013821 0.0140154 0.0142099
0.0144045 0.0145992 0.014794 0.0149889 0.0151839 0.015379 0.0155742 0.0157695 0.0159649 0.0161603
0.016356 0.0165517 0.0167475 0.0169434 0.0171395 0.0173356 0.0175319 0.0177283 0.0179248 0.0181215
0.0183183 0.0185152 0.0187122 0.0189094 0.0191067 0.0193041 0.0195017 0.0196995 0.0198973 0.0200954
0.0202935 0.0204919 0.0206904 0.020889 0.0210878 0.0212868 0.021486 0.0216853 0.0218848 0.0220845
0.0222843 0.0224844 0.0226846 0.022885 0.0230857 0.0232865 0.0234875 0.0236888 0.0238902 0.0240919
0.0242938 0.024496 0.0246983 0.0249009 0.0251037 0.0253068 0.0255102 0.0257138 0.0259176 0.0261217
0.0263261 0.0265308 0.0267358 0.026941 0.0271465 0.0273524 0.0275585 0.027765 0.0279718 0.0281789
0.0283864 0.0285942 0.0288024 0.0290109 0.0292198 0.0294291 0.0296387 0.0298488 0.0300592 0.0302701
0.0304814 0.0306931 0.0309053 0.0311178 0.0313309 0.0315445 0.0317585 0.031973 0.0321881 0.0324036
0.0326197 0.0328364 0.0330535 0.0332713 0.0334896 0.0337086 0.0339281 0.0341483 0.0343691 0.0345906
0.0348128 0.0350357 0.0352592 0.0354835 0.0357085 0.0359343 0.0361609 0.0363882 0.0366164 0.0368454
0.0370753 0.0373061 0.0375378 0.0377704 0.0380039 0.0382383 0.0384738 0.0387103 0.0389477 0.0391863
0.039426 0.0396668 0.0399087 0.0401517 0.0403958 0.0406411 0.0408876 0.0411354 0.0413844 0.0416347
0.0418863 0.0421392 0.0423935 0.042649 0.0429056 0.0431634 0.0434225 0.0436833 0.0439453 0.0442085
0.0444728 0.0447382 0.0450055 0.0452733 0.0455417 0.0458106 0.04608 0.0463519 0.0464801 0.0466082
0.0467363 0.0468642 0.0469443 0.0470975 0.0472504 0.0474032 0.0475559 0.0477095 0.0479804 0.0482494
0.0485167 0.048782 0.0490505 0.0491972 0.0493428 0.0494872 0.0496305 0.0497408 0.0498608 0.0499799
0.0500983 0.0502159 0.0503337 0.0505812 0.0508235 0.0510609 0.0512935 0.0515228 0.0515385 0.0515543
0.05157 0.0515857 0.0516015 0.0518078 0.0520095 0.0522068 0.0524 0.0525871 0.0526988 0.0528087
0.052917 0.0530239 0.0531582 0.0532323 0.0533058 0.0533786 0.0534507 0.0535218 0.0536962 0.053867
0.0540343 0.0541984 0.0543561 0.0544948 0.0546319 0.0547676 0.0549017 0.0551224 0.0551374 0.0551524
0.0551674 0.0551823 0.0551994 0.0553306 0.0554612 0.0555913 0.0557209 0.0558492 0.0559921 0.0561352
0.0562785 0.0564218 0.0565651 0.0567085 0.0568521 0.0569961 0.0571405 0.0572852 0.0574303 0.0575758
0.0577216 0.0578678 0.0580143 0.0581612 0.0583084 0.0584559 0.0586037 0.0587519 0.0589003 0.0590491
0.0591982 0.0593477 0.0594974 0.0596474 0.0597978 0.0599484 0.0600993 0.0602506 0.0604021 0.060554
0.0607061 0.0608586 0.0610114 0.0611645 0.061318 0.0614717 0.0616258 0.0617803 0.061935 0.0620901
0.0622456 0.0624014 0.0625575 0.062714 0.0628709 0.063028 0.0631856 0.0633435 0.0635017 0.0636603
0.0638192 0.0639785 0.0641381 0.064298 0.0644583 0.064619 0.0647799 0.0649412 0.0651028 0.0652648
0.065427 0.0655896 0.0657525 0.0659157 0.0660792 0.066243 0.0664071 0.0665715 0.0667362 0.0669011
0.0670664 0.0672319 0.0673977 0.0675638 0.0677301 0.0678966 0.0680634 0.0682305 0.0683978 0.0685654
0.0687332 0.0689012 0.0690695 0.069238 0.0694067 0.0695756 0.0697447 0.0699141 0.0700836 0.0702534
0.0704233 0.0705935 0.0707638 0.0709343 0.071105 0.0712758 0.0714468 0.071618 0.0717894 0.0719609
0.0721326 0.0723044 0.0724764 0.0726485 0.0728207 0.0729931 0.0731655 0.0733381 0.0735109 0.0736837
0.0738567 0.0740297 0.0742029 0.0743761 0.0745494 0.0747228 0.0748963 0.0750698 0.0752434 0.075417
0.0755908 0.0757645 0.0759383 0.0761121 0.076286 0.0764598 0.0766336 0.0768075 0.0769813 0.0771552
0.0773291 0.0775029 0.0776767 0.077732 0.0777873 0.0778427 0.077898 0.0779445 0.0780647 0.0781848
0.0783049 0.078425 0.0785451 0.0787187 0.0788923 0.0790658 0.0792392 0.0794126 0.079586 0.0797593
0.0799325 0.0801057 0.0802788 0.080452 0.0806251 0.0807982 0.0809713 0.0811444 0.0813174 0.0814905
0.0816635 0.0818366 0.0820098 0.0821829 0.0823562 0.0825295 0.0827029 0.0828763 0.0830498 0.0832233
0.083397 0.0835707 0.0837445 0.0839185 0.0840925 0.0842667 0.084441 0.0846153 0.0847898 0.0849644
0.0851391 0.0853139 0.0854888 0.0856638 0.085839 0.0860143 0.0861897 0.0863652 0.0865408 0.0867165
0.0868922 0.0870681 0.0872441 0.0874203 0.0875965 0.0877728 0.0879493 0.0881258 0.0883024 0.0884791
0.0886559 0.0888327 0.0890097 0.0891868 0.0893639 0.0895412 0.0897185 0.0898959 0.0900734 0.0902509
0.0904285 0.0906062 0.090784 0.0909619 0.0911398 0.0913179 0.091496 0.0916741 0.0918524 0.0920307
0.092209 0.0923875 0.092566 0.0927446 0.0929233 0.093102 0.0932809 0.0934597 0.0936387 0.0938177
0.0939968 0.094176 0.0943552 0.0945346 0.094714 0.0948935 0.0950731 0.0952528 0.0954325 0.0956124
0.0957923 0.0959723 0.0961524 0.0963326 0.0965129 0.0966933 0.0968738 0.0970544 0.0972352 0.0974161
0.0975971 0.0977782 0.0979594 0.0981413 0.0983233 0.0985053 0.0986875 0.0988697 0.0990511 0.0992324
0.0994137 0.0995949 0.0997761 0.0999575 0.100139 0.10032 0.100501 0.100682 0.100863 0.101045
0.101226 0.101408 0.101589 0.101771 0.101954 0.102137 0.10232 0.102504 0.102689 0.102874
0.10306 0.103247 0.103435 0.103624 0.103814 0.104006 0.104199 0.104394 0.104589 0.104787
0.104986 0.105186 0.105388 0.105593 0.105799 0.106008 0.106218 0.106431 0.106646 0.106862
0.107081 0.107302 0.107525 0.107752 0.10798 0.108212 0.108446 0.108682 0.108921 0.109162
0.109406 0.109652 0.109902 0.110013 0.110126 0.110239 0.110352 0.110463 0.110608 0.110753
0.110899 0.111047 0.111195 0.111461 0.11173 0.112001 0.112276 0.112553 0.112833 0.113116
0.113402 0.11369 0.113981 0.114274 0.11457 0.114869 0.11517 0.115473 0.115778 0.116086
0.116395 0.116707 0.117021 0.117336 0.117653 0.117972 0.118292 0.118614 0.118937 0.119261
0.119585 0.11991 0.120237 0.120564 0.120892 0.121221 0.12155 0.121879 0.122208 0.122537
0.122866 0.123194 0.123523 0.123853 0.124182 0.124511 0.124841 0.12517 0.125498 0.125825
0.126152 0.126478 0.126805 0.127131 0.127457 0.127783 0.128108 0.128433 0.128469 0.128505
0.128542 0.128578 0.128614 0.128902 0.129189 0.129476 0.129762 0.130047 0.130367 0.130686
0.131004 0.13132 0.131636 0.131951 0.132266 0.132581 0.132894 0.133207 0.133518 0.133828
0.134137 0.134446 0.134754 0.135061 0.135369 0.135676 0.135983 0.136289 0.136594 0.136898
0.137201 0.137504 0.137807 0.138109 0.138412 0.138714 0.139015 0.139317 0.139441 0.139566
0.139691 0.139815 0.139948 0.140122 0.140296 0.140469 0.140642 0.140815 0.141113 0.14141
0.141706 0.142001 0.142295 0.142589 0.142883 0.143176 0.143468 0.143759 0.144049 0.144339
0.144628 0.144915 0.145203 0.14549 0.145777 0.146063 0.146349 0.146634 0.14665 0.146667
0.146684 0.1467 0.146716 0.146984 0.14725 0.147516 0.147781 0.148046 0.148327 0.148608
0.148889 0.149169 0.149449 0.149727 0.150004 0.150281 0.150557 0.150833 0.151109 0.151384
0.151659 0.151933 0.152207 0.15248 0.152751 0.153023 0.153293 0.153563 0.153833 0.154102
0.154371 0.154639 0.154907 0.155173 0.155439 0.155705 0.155969 0.156233 0.156497 0.15676
0.157022 0.157284 0.157545 0.157805 0.158064 0.158323 0.158581 0.158839 0.159096 0.159352
0.159608 0.159863 0.160117 0.16037 0.160623 0.160875 0.161127 0.161378 0.161602 0.161825
0.162048 0.16227 0.162533 0.162551 0.162568 0.162586 0.162604 0.162621 0.162868 0.163114
0.163359 0.163602 0.163843 0.16408 0.164318 0.164554 0.164789 0.165023 0.165252 0.165483
0.165712 0.165941 0.166168 0.166391 0.166616 0.16684 0.167063 0.167285 0.167503 0.167724
0.167944 0.168162 0.16838 0.168595 0.168811 0.169027 0.169242 0.169457 0.169668 0.169881
0.170094 0.170306 0.170518 0.170726 0.170937 0.171147 0.171357 0.171566 0.171978 0.17239
0.172801 0.173209 0.173608 0.174387 0.175166 0.175944 0.17672 0.177495 0.179018 0.180532
0.182045 0.183558 0.18507 0.186579 0.188089 0.189599 0.191108 0.192617 0.195629 0.198641
0.201652 0.204663 0.207672 0.213678 0.219685 0.225691 0.231698 0.237704 0.243705 0.249709
0.255712 0.261716 0.26772 0.27372 0.279724 0.285727 0.29173 0.297732 0.303733 0.309736
0.315738 0.321741 0.327743 0.333744 0.339746 0.345748 0.35175 0.357752 0.363753 0.369755
0.375756 0.381758 0.38776 0.39376 0.399762 0.405764 0.411765 0.417767 0.423767 0.428478
0 7.36595e-05 0.000147324 0.000220992 0.000294666 0.000368344 0.000558903 0.000749495 0.000940119 0.00113078
0.00132147 0.00150948 0.00169753 0.00188561 0.00207372 0.00227215 0.00227281 0.00227346 0.00227412 0.00227477
0.00227543 0.00246632 0.00265725 0.00284822 0.00303923 0.00323027 0.00342135 0.00361247 0.00380363 0.00399483
0.00418606 0.00437734 0.00456866 0.00476002 0.00495143 0.00514287 0.00533436 0.00552589 0.00571747 0.0059091
0.00610077 0.00629248 0.00648424 0.00667606 0.00686792 0.00705983 0.00725178 0.00744379 0.00763585 0.00782797
0.00802013 0.00821235 0.00840462 0.00859695 0.00878934 0.00898178 0.00917428 0.00936684 0.00955946 0.00975214
0.00994488 0.0101377 0.0103305 0.0105235 0.0107165 0.0109095 0.0111027 0.0112959 0.0114891 0.0116825
0.0118759 0.0120693 0.0122629 0.0124565 0.0126502 0.012844 0.0130379 0.0132318 0.0134258 0.0136199
0.0138141 0.0140084 0.0142027 0.0143972 0.0145917 0.0147863 0.014981 0.0151758 0.0153708 0.0155658
0.0157609 0.015956 0.0161513 0.0163468 0.0165423 0.0167379 0.0169336 0.0171294 0.0173254 0.0175214
0.0177176 0.0179139 0.0181103 0.0183069 0.0185035 0.0187003 0.0188973 0.0190943 0.0192915 0.0194888
0.0196863 0.0198839 0.0200817 0.0202796 0.0204776 0.0206758 0.0208742 0.0210727 0.0212714 0.0214702
0.0216692 0.0218684 0.0220677 0.0222673 0.022467 0.0226669 0.022867 0.0230673 0.0232677 0.0234684
0.0236693 0.0238704 0.0240717 0.0242732 0.024475 0.024677 0.0248792 0.0250816 0.0252843 0.0254872
0.0256904 0.0258938 0.0260975 0.0263015 0.0265057 0.0267103 0.0269151 0.0271202 0.0273256 0.0275313
0.0277374 0.0279437 0.0281504 0.0283574 0.0285648 0.0287725 0.0289806 0.0291891 0.0293979 0.0296072
0.0298168 0.0298585 0.0299002 0.029942 0.0299837 0.0300245 0.0301934 0.0303625 0.030532 0.0307017
0.0308717 0.031084 0.0312967 0.03151 0.0317237 0.031938 0.0321528 0.0323682 0.0325841 0.0328006
0.0330177 0.0332354 0.0334538 0.0336728 0.0338925 0.0341129 0.0343339 0.0345558 0.0347784 0.0350018
0.035226 0.035451 0.0356769 0.0359038 0.0361315 0.0363602 0.0365898 0.0368206 0.0370524 0.0372854
0.0375195 0.0377546 0.0379911 0.0382289 0.038468 0.0387084 0.0389503 0.0391938 0.0394389 0.0396857
0.0399341 0.0401841 0.0404361 0.04069 0.040946 0.0412041 0.0414641 0.0417267 0.0419919 0.0422597
0.0425301 0.0428037 0.0430803 0.0433601 0.0436433 0.0439301 0.0442198 0.0445136 0.0448116 0.0451138
0.0454215 0.0457314 0.0460459 0.046365 0.0466887 0.0470226 0.0471827 0.0473441 0.0475067 0.0476702
0.0477477 0.0479513 0.0481563 0.0483625 0.0485699 0.0487855 0.0490885 0.0493937 0.0497005 0.0500064
0.0500963 0.050214 0.0503313 0.0504484 0.0505651 0.0506863 0.0508849 0.0510815 0.0512758 0.0514678