# vtk DataFile Version 2.0
tracks
ASCII
DATASET POLYDATA
POINTS 20015 float
-1.001 1e-07 0.0011 -0.99955 9.86702e-08 0.0011 -0.9981 9.80286e-08 0.00109999 -0.99665 9.80752e-08
0.00109999 -0.9952 9.88105e-08 0.00109999 -0.99375 1.00235e-07 0.0011 -0.99 1.05664e-07 0.00110001
-0.98625 1.11129e-07 0.00110003 -0.9825 1.16596e-07 0.00110005 -0.97875 1.28037e-07 0.00110004 -0.975
1.51198e-07 0.00109997 -0.97125 1.8604e-07 0.00109985 -0.9675 2.20941e-07 0.00109973 -0.96375 2.5585e-07
0.00109961 -0.96 2.94522e-07 0.00109945 -0.95625 3.40582e-07 0.00109923 -0.9525 3.93979e-07 0.00109894
-0.94875 4.47437e-07 0.00109865 -0.945 5.00898e-07 0.00109836 -0.94125 5.6146e-07 0.00109805 -0.9375
6.36044e-07 0.00109771 -0.93375 7.24437e-07 0.00109733 -0.93 8.13058e-07 0.00109695 -0.92625 9.0168e-07
0.00109657 -0.9225 1.00663e-06 0.00109618 -0.91875 1.1441e-06 0.00109579 -0.915 1.31369e-06 0.0010954
-0.91125 1.4837e-06 0.001095 -0.9075 1.65371e-06 0.0010946 -0.90375 1.83372e-06 0.00109421 -0.9
2.03383e-06 0.00109382 -0.89625 2.2533e-06 0.00109345 -0.8925 2.44629e-06 0.0010931 -0.88875 2.61202e-06
0.00109277 -0.885 2.76429e-06 0.00109247 -0.88125 2.91658e-06 0.00109216 -0.8775 3.06841e-06 0.00109185
-0.87375 3.174e-06 0.00109158 -0.87 3.23295e-06 0.00109137 -0.86625 3.26901e-06 0.00109118 -0.8625
3.30508e-06 0.00109098 -0.85875 3.34073e-06 0.00109079 -0.855 3.35288e-06 0.00109064 -0.85125 3.34128e-06
0.00109053 -0.8475 3.31807e-06 0.00109044 -0.84375 3.29485e-06 0.00109034 -0.84 3.27069e-06 0.00109025
-0.83625 3.2585e-06 0.00109019 -0.8325 3.25746e-06 0.00109015 -0.82875 3.26186e-06 0.00109013 -0.825
3.26627e-06 0.00109011 -0.82125 3.27056e-06 0.00109009 -0.8175 3.30636e-06 0.0010901 -0.81375 3.37358e-06
0.00109015 -0.81 3.45612e-06 0.00109021 -0.80625 3.53869e-06 0.00109027 -0.8025 3.62114e-06 0.00109033
-0.79875 3.72663e-06 0.00109043 -0.795 3.855e-06 0.00109056 -0.79125 3.99457e-06 0.00109071 -0.7875
4.1342e-06 0.00109086 -0.78375 4.27278e-06 0.00109101 -0.78 4.42341e-06 0.00109118 -0.77625 4.58503e-06
0.00109138 -0.7725 4.75209e-06 0.0010916 -0.76875 4.91922e-06 0.00109182 -0.765 5.08516e-06 0.00109203
-0.76125 5.26113e-06 0.00109227 -0.7575 5.44586e-06 0.00109254 -0.75375 5.63496e-06 0.00109282 -0.75
5.82415e-06 0.0010931 -0.74625 6.01327e-06 0.00109338 -0.7425 6.21078e-06 0.0010937 -0.73875 6.41636e-06
0.00109404 -0.735 6.62601e-06 0.0010944 -0.73125 6.8358e-06 0.00109475 -0.7275 7.04545e-06 0.00109511
-0.72375 7.26302e-06 0.0010955 -0.72 7.48808e-06 0.00109591 -0.71625 7.71697e-06 0.00109633 -0.7125
7.94603e-06 0.00109675 -0.70875 8.17489e-06 0.00109718 -0.705 8.40316e-06 0.00109761 -0.70125 8.63038e-06
0.00109806 -0.6975 8.85717e-06 0.00109852 -0.69375 9.08412e-06 0.00109898 -0.69 9.30827e-06 0.00109944
-0.68625 9.52395e-06 0.0010999 -0.6825 9.72825e-06 0.00110035 -0.67875 9.92682e-06 0.00110081 -0.675
1.01255e-05 0.00110126 -0.67125 1.03212e-05 0.00110172 -0.6675 1.05157e-05 0.00110217 -0.66375 1.07055e-05
0.00110262 -0.66 1.0893e-05 0.00110307 -0.65625 1.10806e-05 0.00110352 -0.6525 1.12684e-05 0.00110397
-0.64875 1.14495e-05 0.00110444 -0.645 1.16235e-05 0.00110491 -0.64125 1.17938e-05 0.00110539 -0.6375
1.19642e-05 0.00110587 -0.63375 1.21299e-05 0.00110635 -0.63 1.22626e-05 0.00110684 -0.62625 1.23568e-05
0.00110735 -0.6225 1.24308e-05 0.00110787 -0.61875 1.25048e-05 0.00110838 -0.615 1.25735e-05 0.0011089
-0.61125 1.26126e-05 0.00110942 -0.6075 1.26166e-05 0.00110996 -0.60375 1.26018e-05 0.00111051 -0.6
1.2587e-05 0.00111106 -0.59625 1.25667e-05 0.0011116 -0.5925 1.2552e-05 0.00111215 -0.58875 1.25373e-05
0.0011127 -0.585 1.25174e-05 0.00111325 -0.58125 1.2488e-05 0.00111383 -0.5775 1.24498e-05 0.00111443
-0.57375 1.24115e-05 0.00111503 -0.57 1.23731e-05 0.00111562 -0.56625 1.23321e-05 0.00111624 -0.5625
1.22862e-05 0.00111688 -0.55875 1.22361e-05 0.00111756 -0.555 1.2186e-05 0.00111824 -0.55125 1.21358e-05
0.00111892 -0.5475 1.20759e-05 0.00111962 -0.54375 1.19985e-05 0.00112035 -0.54 1.18966e-05 0.00112112
-0.53625 1.18018e-05 0.00112189 -0.5325 1.17068e-05 0.00112267 -0.52875 1.15941e-05 0.00112345 -0.525
1.14498e-05 0.00112427 -0.52125 1.12751e-05 0.00112511 -0.5175 1.10996e-05 0.00112596 -0.51375 1.09238e-05
0.0011268 -0.51 1.07374e-05 0.00112766 -0.50625 1.05327e-05 0.00112855 -0.5025 1.03112e-05 0.00112947
-0.49875 1.00887e-05 0.00113039 -0.495 9.86585e-06 0.00113131 -0.49125 9.65645e-06 0.00113225 -0.4875
9.47052e-06 0.00113322 -0.48375 9.30104e-06 0.00113423 -0.48 9.13985e-06 0.00113524 -0.47625 8.97835e-06
0.00113625 -0.4725 8.85105e-06 0.00113728 -0.46875 8.782e-06 0.00113833 -0.465 8.76339e-06 0.00113942
-0.46125 8.75406e-06 0.00114052 -0.4575 8.7447e-06 0.00114161 -0.45375 8.72812e-06 0.00114271 -0.45
8.69957e-06 0.00114383 -0.44625 8.64972e-06 0.00114496 -0.4425 8.60978e-06 0.00114609 -0.43875 8.56975e-06
0.00114722 -0.435 8.49424e-06 0.00114837 -0.43125 8.361e-06 0.00114952 -0.4275 8.17117e-06 0.00115068
-0.42375 7.98092e-06 0.00115185 -0.42 7.79019e-06 0.00115301 -0.41625 7.60574e-06 0.0011542 -0.4125
7.43158e-06 0.00115541 -0.40875 7.26908e-06 0.00115664 -0.405 7.10691e-06 0.00115788 -0.40125 6.94427e-06
0.00115912 -0.3975 6.81257e-06 0.00116039 -0.39375 6.72948e-06 0.00116171 -0.39 6.6843e-06 0.00116307
-0.38625 6.65072e-06 0.00116443 -0.3825 6.61702e-06 0.0011658 -0.37875 6.59136e-06 0.00116718 -0.375
6.57804e-06 0.00116857 -0.37125 6.56559e-06 0.00116998 -0.3675 6.56573e-06 0.0011714 -0.36375 6.56586e-06
0.00117281 -0.36 6.54926e-06 0.00117419 -0.35625 6.50771e-06 0.00117551 -0.3525 6.4425e-06 0.00117677
-0.34875 6.3772e-06 0.00117803 -0.345 6.31166e-06 0.0011793 -0.34125 6.25586e-06 0.0011805 -0.3375
6.21437e-06 0.0011816 -0.33375 6.17365e-06 0.00118261 -0.33 6.14852e-06 0.00118363 -0.32625 6.12328e-06
0.00118464 -0.3225 6.13508e-06 0.00118558 -0.31875 6.20009e-06 0.00118641 -0.315 6.30293e-06 0.00118713
-0.31125 6.42365e-06 0.00118785 -0.3075 6.54478e-06 0.00118857 -0.30375 6.57586e-06 0.00118917 -0.3
6.47915e-06 0.00118962 -0.29625 6.23509e-06 0.0011899 -0.2925 5.84506e-06 0.00118994 -0.28875 5.28749e-06
0.00118973 -0.285 4.60874e-06 0.00118935 -0.28125 3.92813e-06 0.00118897 -0.2775 3.2474e-06 0.00118859
-0.27375 2.62666e-06 0.00118785 -0.27 2.06718e-06 0.00118677 -0.26625 1.55124e-06 0.00118544 -0.2625
1.03418e-06 0.00118411 -0.261002 8.2734e-07 0.00118358 -0.259503 6.55888e-07 0.00118297 -0.258005 5.19998e-07
0.00118229 -0.256506 4.19827e-07 0.00118152 -0.246722 5.52967e-16 0.00117604 -0.246722 5.52967e-16 0.00117604
-0.246722 5.52967e-16 0.00117604 -0.246722 5.52967e-16 0.00117604 -0.246722 5.52967e-16 0.00117604 -0.246722
5.52967e-16 0.00117604 -0.246127 1.34494e-08 0.00117563 -0.245533 2.69019e-08 0.00117521 -0.244939 4.03575e-08
0.0011748 -0.244344 5.38163e-08 0.00117438 -0.24375 6.72781e-08 0.00117397 -0.24 1.51964e-07 0.00117135
-0.23625 6.23482e-07 0.00116807 -0.2325 1.48526e-06 0.00116413 -0.22875 2.60639e-06 0.00115977 -0.225
3.7279e-06 0.00115542 -0.22125 4.85145e-06 0.00115109 -0.2175 6.03331e-06 0.00114587 -0.21375 7.27058e-06
0.00113978 -0.21 8.54091e-06 0.00113317 -0.20625 9.81028e-06 0.00112661 -0.2025 1.10786e-05 0.00112009
-0.19875 1.19279e-05 0.00111234 -0.195 1.23479e-05 0.00110336 -0.19125 1.25399e-05 0.00109379 -0.1875
1.27319e-05 0.00108431 -0.18375 1.28437e-05 0.00107493 -0.18 1.26192e-05 0.00106397 -0.17625 1.19721e-05
0.00105146 -0.1725 1.11532e-05 0.00103841 -0.16875 1.03414e-05 0.00102555 -0.165 9.46859e-06 0.00101286
-0.16125 8.47292e-06 0.000998209 -0.1575 7.28724e-06 0.000981626 -0.15375 6.06325e-06 0.000964774 -0.15
4.85579e-06 0.000948249 -0.147024 3.88464e-06 0.000935384 -0.144047 2.97666e-06 0.00092105 -0.141071 2.106e-06
0.000905282 -0.138094 1.26383e-06 0.00088877 -0.13356 9.09112e-12 0.000864124 -0.133098 -1.25851e-07 0.00086169
-0.132636 -2.51438e-07 0.000859264 -0.132174 -3.76752e-07 0.000856845 -0.131712 -5.01794e-07 0.000854434 -0.13125
-6.26566e-07 0.00085203 -0.1275 -1.63235e-06 0.00083258 -0.12375 -2.5293e-06 0.000810822 -0.12 -3.32514e-06
0.000787272 -0.11625 -4.10282e-06 0.000764463 -0.1125 -4.86305e-06 0.000742368 -0.10875 -5.56838e-06 0.000720957
-0.105 -6.21928e-06 0.000697076 -0.10125 -6.80653e-06 0.00067211 -0.0975 -7.37815e-06 0.000648085 -0.0937499
-7.93484e-06 0.00062496 -0.0899999 -8.47699e-06 0.00060269 -0.0862499 -8.93375e-06 0.000578055 -0.0825 -9.35218e-06
0.000553321 -0.0787499 -9.7586e-06 0.000529668 -0.0749999 -1.01536e-05 0.000507048 -0.0712499 -1.05364e-05 0.000485397
-0.0674999 -1.08512e-05 0.000463017 -0.0637499 -1.11517e-05 0.000441497 -0.0599999 -1.14443e-05 0.000420974 -0.0562499
-1.17295e-05 0.000401403 -0.0524999 -1.19198e-05 0.000382725 -0.0487498 -1.21443e-05 0.000365817 -0.0449998 -1.23644e-05
0.000349642 -0.0412498 -1.25803e-05 0.000334169 -0.0374998 -1.27921e-05 0.000319368 -0.0337498 -1.2998e-05 0.000305205
-0.0299998 -1.31649e-05 0.000294374 -0.0262498 -1.33301e-05 0.000283917 -0.0224998 -1.34939e-05 0.000273821 -0.0187499
-1.36563e-05 0.000264075 -0.0149999 -1.38134e-05 0.000254675 -0.0112499 -1.39297e-05 0.000248622 -0.0074999 -1.40461e-05
0.000242708 -0.00374991 -1.41626e-05 0.00023693 6.11941e-08 -1.42792e-05 0.000231285 0.00375005 -1.43063e-05 0.000225788
0.00750005 -1.44116e-05 0.000220436 0.01125 -1.4517e-05 0.000215208 0.015 -1.46224e-05 0.000210102 0.01875
-1.47279e-05 0.000205114 0.0225 -1.47222e-05 0.00020188 0.02625 -1.47893e-05 0.000198705 0.03 -1.48568e-05
0.000195578 0.03375 -1.49247e-05 0.0001925 0.0375 -1.49931e-05 0.00018947 0.04125 -1.4966e-05 0.000187069
0.045 -1.50028e-05 0.000184705 0.04875 -1.50401e-05 0.000182371 0.0525 -1.50779e-05 0.000180066 0.05625
-1.51162e-05 0.00017779 0.06 -1.5135e-05 0.000175876 0.06375 -1.51463e-05 0.00017399 0.0675 -1.5158e-05
0.000172124 0.07125 -1.51703e-05 0.000170277 0.075 -1.5183e-05 0.00016845 0.07875 -1.51311e-05 0.000167023
0.0825 -1.51233e-05 0.000165615 0.08625 -1.51159e-05 0.000164218 0.09 -1.51089e-05 0.000162833 0.09375
-1.51023e-05 0.000161459 0.0975 -1.50454e-05 0.000160551 0.10125 -1.50266e-05 0.000159652 0.105 -1.50081e-05
[...]
POINT_DATA 20015
FIELD attributes 3
age 1 20015 float
0 7.34628e-05 0.000146934 0.000220412 0.000293899 0.000367394 0.000557487 0.00074758 0.000937673 0.0011278 0.00131799
0.00150824 0.0016985 0.00188875 0.00207903 0.00226935 0.00245973 0.0026501 0.00284047 0.00303087 0.00322131
0.00341179 0.00360226 0.00379274 0.00398324 0.00417378 0.00436435 0.00455493 0.0047455 0.00493609 0.0051267
0.00531734 0.00550802 0.00569872 0.00588943 0.00608015 0.00627086 0.00646162 0.00665242 0.00684324 0.00703407
0.00722489 0.00741576 0.00760669 0.00779765 0.0079886 0.00817956 0.00837056 0.00856162 0.0087527 0.00894379
0.00913487 0.00932601 0.0095172 0.00970842 0.00989965 0.0100909 0.0102822 0.0104735 0.0106649 0.0108563
0.0110477 0.0112391 0.0114306 0.0116222 0.0118137 0.0120053 0.0121969 0.0123886 0.0125803 0.012772
0.0129637 0.0131555 0.0133474 0.0135393 0.0137312 0.0139231 0.0141152 0.0143073 0.0144994 0.0146916
0.0148838 0.0150761 0.0152685 0.0154609 0.0156534 0.0158458 0.0160384 0.016231 0.0164238 0.0166165
0.0168093 0.0170021 0.0171951 0.0173881 0.0175811 0.0177741 0.0179673 0.0181605 0.0183539 0.0185473
0.0187406 0.0189341 0.0191278 0.0193215 0.0195153 0.019709 0.019903 0.020097 0.0202912 0.0204853
0.0206794 0.0208736 0.0210677 0.021262 0.0214564 0.0216509 0.0218455 0.02204 0.0222347 0.0224296
0.0226246 0.0228196 0.0230147 0.0232098 0.0234052 0.0236008 0.0237964 0.023992 0.0241878 0.0243838
0.02458 0.0247762 0.0249724 0.0251688 0.0253654 0.0255623 0.0257592 0.0259561 0.0261531 0.0263505
0.0265481 0.0267457 0.0269434 0.0271412 0.0273393 0.0275378 0.0277363 0.0279347 0.0281334 0.0283325
0.0285318 0.0287312 0.0289306 0.0291302 0.0293302 0.0295305 0.0297309 0.0299312 0.0301318 0.0303329
0.0305343 0.0307357 0.0309372 0.031139 0.0313413 0.031544 0.0317468 0.0319496 0.0321527 0.0323564
0.0325606 0.0327649 0.0329691 0.0331737 0.0333789 0.0335846 0.0337903 0.033996 0.0342022 0.0344089
0.0346162 0.0348235 0.0350309 0.0352387 0.0354471 0.0356562 0.0358653 0.0360745 0.0362841 0.0364943
0.0367052 0.0369168 0.0371291 0.0373418 0.0375545 0.0377672 0.0379806 0.0381946 0.0384091 0.0386236
0.0387093 0.0387951 0.038881 0.038967 0.0395291 0.0395291 0.0395291 0.0395291 0.0395291 0.0395291
0.0395634 0.0395976 0.0396319 0.0396661 0.0397004 0.0399164 0.040133 0.0403501 0.0405676 0.0407849
0.0410021 0.0412198 0.0414379 0.0416561 0.0418741 0.0420919 0.0423099 0.042528 0.0427461 0.0429638
0.0431812 0.0433983 0.0436152 0.0438317 0.0440478 0.0442634 0.0444783 0.0446923 0.0449058 0.0451187
0.0452872 0.0454549 0.0456216 0.0457875 0.0460397 0.0460653 0.046091 0.0461166 0.0461422 0.0461677
0.0463754 0.0465808 0.0467842 0.0469871 0.0471895 0.0473915 0.0475907 0.047788 0.0479849 0.0481815
0.0483778 0.0485706 0.0487621 0.0489535 0.0491447 0.0493357 0.0495228 0.0497095 0.0498963 0.0500832
0.05027 0.0504536 0.0506373 0.0508212 0.0510053 0.0511895 0.0513716 0.0515539 0.0517364 0.051919
0.0521019 0.0522838 0.0524658 0.052648 0.0528302 0.0530127 0.0531952 0.0533778 0.0535605 0.0537434
0.0539261 0.0541089 0.0542917 0.0544746 0.0546576 0.0548407 0.0550237 0.0552068 0.05539 0.0555732
0.0557565 0.0559398 0.0561231 0.0563065 0.0564899 0.0566734 0.0568569 0.0570405 0.057224 0.0574076
0.0575914 0.0577751 0.0579588 0.0581426 0.0583263 0.0585103 0.0586942 0.0588781 0.0590621 0.059246
0.0594302 0.0596143 0.0597984 0.0599826 0.0601667 0.0603511 0.0605355 0.0607199 0.0609042 0.0610886
0.0612733 0.0614579 0.0616424 0.061827 0.0620117 0.0621965 0.0623813 0.0625661 0.0627509 0.0629357
0.0631207 0.0633057 0.0634906 0.0636756 0.0638606 0.0640457 0.0642308 0.0644159 0.064601 0.0647861
0.0649714 0.0651566 0.0653419 0.0655271 0.0657124 0.0658978 0.0660832 0.0662685 0.0664539 0.0666393
0.0668248 0.0670103 0.0671958 0.0673813 0.0675668 0.0677525 0.0679383 0.068124 0.0683098 0.0684955
0.0686813 0.0688672 0.0690531 0.0692389 0.0694248 0.0696107 0.0697967 0.0699826 0.0701686 0.0703545
0.0705405 0.0707266 0.0709126 0.0710986 0.0712847 0.0714708 0.0716569 0.071843 0.0720291 0.0722153
0.0724014 0.0725876 0.0727738 0.07296 0.0731462 0.0733324 0.0735187 0.073705 0.0738912 0.0740775
0.0742638 0.0744501 0.0746364 0.0748227 0.075009 0.0751953 0.0753816 0.075568 0.0757543 0.0759406
0.076127 0.0763133 0.0764996 0.076686 0.0768723 0.0770587 0.0772449 0.0774312 0.0776175 0.0778038
0.0779901 0.0781764 0.0783626 0.0785488 0.0787351 0.0789213 0.0791075 0.0792937 0.0794799 0.079666
0.0798523 0.0800384 0.0802245 0.0804106 0.0805967 0.0807828 0.0809689 0.0811549 0.0813409 0.081527
0.081713 0.081899 0.082085 0.082271 0.082457 0.082643 0.082829 0.0830149 0.0832009 0.0833869
0.0835729 0.0837588 0.0839447 0.0841306 0.0843166 0.0845025 0.0846884 0.0848743 0.0850601 0.085246
0.0854319 0.0856178 0.0858036 0.0859894 0.0861753 0.0863611 0.0865469 0.0867327 0.0869185 0.0871043
0.0872901 0.0874759 0.0876616 0.0878474 0.0880332 0.088219 0.0884047 0.0885904 0.0887762 0.0889619
0.0891477 0.0893334 0.0895191 0.0897048 0.0898905 0.0900763 0.0902619 0.0904476 0.0906333 0.090819
0.0910047 0.0911903 0.091376 0.0915616 0.0917473 0.091933 0.0921186 0.0923042 0.0924898 0.0926754
0.092861 0.0930466 0.0932321 0.0934177 0.0936032 0.0937888 0.0939742 0.0941597 0.0943452 0.0945307
0.0947162 0.0949016 0.095087 0.0952724 0.0954578 0.0956432 0.0958286 0.0960139 0.0961993 0.0963846
0.09657 0.0967552 0.0969405 0.0971258 0.097311 0.0974963 0.0976814 0.0978666 0.0980517 0.0982368
0.098422 0.0986071 0.0987922 0.0989773 0.0991624 0.0993476 0.0995328 0.099718 0.0999031 0.100088
0.100273 0.100459 0.100644 0.10083 0.101015 0.1012 0.101386 0.101572 0.101758 0.101944
0.10213 0.102316 0.102503 0.102689 0.102876 0.103062 0.10325 0.103438 0.103625 0.103813
0.104 0.104189 0.104378 0.104566 0.104755 0.104944 0.105134 0.105324 0.105514 0.105704
0.105894 0.106085 0.106276 0.106467 0.106658 0.106849 0.107041 0.107233 0.107426 0.107618
0.10781 0.108003 0.108196 0.108389 0.108582 0.108775 0.108968 0.109162 0.109355 0.109549
0.109743 0.109936 0.11013 0.110324 0.110518 0.110712 0.110906 0.111101 0.111295 0.111489
0.111683 0.111878 0.112072 0.112266 0.112461 0.112655 0.11285 0.113044 0.113239 0.113434
0.113628 0.113823 0.114017 0.114212 0.114406 0.114601 0.114795 0.114989 0.115184 0.115378
0.115572 0.115767 0.115961 0.116155 0.116349 0.116543 0.116737 0.116931 0.117125 0.117319
0.117513 0.117706 0.1179 0.118094 0.118287 0.118481 0.118674 0.118867 0.119061 0.119254
0.119447 0.11964 0.119833 0.120026 0.120218 0.120411 0.120604 0.120796 0.120989 0.121181
0.121373 0.121566 0.121758 0.12195 0.122142 0.122334 0.122526 0.122718 0.12291 0.123101
0.123293 0.123485 0.123676 0.123868 0.124059 0.12425 0.124442 0.124633 0.124824 0.125016
0.125207 0.125398 0.125589 0.12578 0.125971 0.126161 0.126352 0.126543 0.126734 0.126924
0.127115 0.127306 0.127496 0.127687 0.127877 0.128068 0.128258 0.128448 0.128638 0.128828
0.129018 0.129208 0.129398 0.129588 0.129778 0.129968 0.130158 0.130348 0.130538 0.130728
0.130918 0.131107 0.131297 0.131487 0.131676 0.131866 0.132056 0.132245 0.132435 0.132624
0.132814 0.133003 0.133193 0.133382 0.133572 0.133761 0.13395 0.13414 0.134329 0.134518
0.134708 0.134897 0.135086 0.135275 0.135465 0.135654 0.135843 0.136032 0.136221 0.13641
0.1366 0.136789 0.136978 0.137167 0.137356 0.137545 0.137734 0.137923 0.138112 0.138301
0.13849 0.138679 0.138868 0.139057 0.139245 0.139434 0.139623 0.139812 0.140001 0.14019
0.140379 0.140567 0.140756 0.140945 0.141134 0.141323 0.141511 0.1417 0.141889 0.142077
0.142266 0.142455 0.142644 0.142832 0.143021 0.14321 0.143398 0.143587 0.143776 0.143964
0.144153 0.144341 0.14453 0.144719 0.144907 0.145096 0.145284 0.145473 0.145662 0.14585
0.146039 0.146227 0.146416 0.146604 0.146793 0.146982 0.14717 0.147359 0.147547 0.147736
0.147924 0.148113 0.148301 0.14849 0.148678 0.148866 0.149055 0.149243 0.149432 0.14962
0.149809 0.149997 0.150186 0.150374 0.150562 0.150751 0.150939 0.151128 0.151316 0.151504
0.151693 0.151881 0.152069 0.152258 0.152446 0.152823 0.153199 0.153576 0.153953 0.154329
0.155081 0.155833 0.156584 0.157336 0.158088 0.159589 0.16109 0.162591 0.164092 0.165593
0.167093 0.168594 0.170095 0.171596 0.173096 0.176098 0.179099 0.182101 0.185102 0.188104
0.194105 0.200106 0.206108 0.212109 0.218111 0.224111 0.230112 0.236113 0.242114 0.248114
0.254115 0.260115 0.266116 0.272117 0.278117 0.284118 0.290119 0.296119 0.30212 0.30812
0.314121 0.320122 0.326122 0.332123 0.338124 0.344124 0.350125 0.356125 0.362126 0.368127
0.374127 0.380128 0.386129 0.392129 0.39813 0.404131 0.410146 0.416176 0.42222 0.42828
0 7.47165e-05 0.000149438 0.000224166 0.000298899 0.000373637 0.000566943 0.000760302 0.000953712 0.00114717
0.00134069 0.00153426 0.00172788 0.00192158 0.00211533 0.00230915 0.00250303 0.00269698 0.002891 0.0030851
0.00327926 0.00347349 0.00366778 0.00386214 0.00405657 0.00425106 0.00444561 0.00464021 0.00483487 0.00502958
0.00522434 0.00541916 0.00561402 0.00580893 0.00600388 0.00619888 0.00639392 0.00658901 0.00678415 0.00697933
0.00717455 0.00736982 0.00756514 0.0077605 0.00795591 0.00815136 0.00834687 0.00854242 0.00873802 0.00893367
0.00912937 0.00932512 0.00952093 0.00971679 0.00991271 0.0101087 0.0103047 0.0105008 0.010697 0.0108932
0.0110895 0.0112859 0.0114823 0.0116788 0.0118753 0.012072 0.0122686 0.0124654 0.0126623 0.0128592
0.0130562 0.0132532 0.0134504 0.0136476 0.013845 0.0140424 0.0142399 0.0144375 0.0146352 0.014833
0.0150309 0.0152288 0.0154269 0.0156251 0.0158234 0.0160219 0.0162204 0.016419 0.0166178 0.0168166
0.0170156 0.0172147 0.0174139 0.0176132 0.0178127 0.0180123 0.018212 0.0184118 0.0186118 0.018812
0.0190123 0.0192127 0.0194133 0.019614 0.0198149 0.020016 0.0202172 0.0204186 0.0206201 0.0208218
0.0210237 0.0212258 0.021428 0.0216305 0.0218331 0.0220359 0.0222389 0.0224421 0.0226455 0.0228491
0.023053 0.023257 0.0234613 0.0236658 0.0238705 0.0240755 0.0242807 0.0244862 0.0246919 0.0248979
0.0251041 0.0253106 0.0255173 0.0257244 0.0259317 0.0261394 0.0263473 0.0265555 0.026764 0.0269729
0.0271821 0.0273916 0.0276014 0.0278116 0.0280222 0.0282331 0.0284444 0.0286561 0.0288681 0.0290806
0.0292935 0.0295067 0.0297204 0.0299345 0.0301491 0.0303642 0.0305796 0.0307956 0.0310121 0.0312291
0.0314466 0.0316646 0.0318832 0.0321024 0.0323221 0.0325424 0.0327633 0.0329848 0.033207 0.0334298
0.0336533 0.0338774 0.0341023 0.0343278 0.0345541 0.0347812 0.0350089 0.0352375 0.0354669 0.0356972
0.0359282 0.0361601 0.0363929 0.0366267 0.0368613 0.0370969 0.0373335 0.0375711 0.0378097 0.0380494
0.0382902 0.0385319 0.0387749 0.039019 0.0392643 0.0395108 0.0397585 0.0400076 0.0402579 0.0405097
0.0407627 0.0410171 0.0412729 0.0415301 0.0417887 0.0420489 0.0423106 0.0425739 0.0428388 0.0431052
0.0433734 0.043643 0.0439141 0.0441866 0.0444608 0.044737 0.0450147 0.0452937 0.0455742 0.0458559
0.0461401 0.0464248 0.0467103 0.0469964 0.0472833 0.0475731 0.0476873 0.0478015 0.0479157 0.0480298
0.0481092 0.0482916 0.0484739 0.048656 0.048838 0.0490213 0.0493106 0.049598 0.0498837 0.0501672
0.0504543 0.0505766 0.0506982 0.050819 0.050939 0.0510375 0.0511977 0.0513567 0.0515144 0.0516709
0.0518278 0.0520805 0.0523281 0.0525709 0.0528091 0.0530231 0.0530386 0.053054 0.0530695 0.0530849
0.0531004 0.0533405 0.0535748 0.0538034 0.0540266 0.054242 0.0543199 0.054397 0.0544734 0.054549
0.0546364 0.0547609 0.0548837 0.0550048 0.0551241 0.0552404 0.055426 0.0556077 0.0557856 0.0559599
0.0561272 0.0561926 0.0562576 0.0563222 0.0563865 0.0564774 0.056485 0.0564926 0.0565002 0.0565079
0.0565158 0.0566006 0.0566848 0.0567683 0.0568512 0.0569329 0.0570872 0.0572403 0.0573925 0.0575438
0.057693 0.0578417 0.0579904 0.058139 0.0582875 0.0584354 0.0585831 0.0587308 0.0588784 0.059026
0.0591737 0.0593214 0.0594692 0.059617 0.0597649 0.0599127 0.0600396 0.0601665 0.0602934 0.0604204
0.0605245 0.06055 0.0605756 0.0606011 0.0606266 0.0606521 0.0608003 0.0609486 0.0610971 0.0612457
0.0613945 0.0615434 0.0616925 0.0618419 0.0619915 0.0621414 0.0622916 0.0624421 0.0625929 0.062744
0.0628955 0.0630473 0.0631995 0.063352 0.0635049 0.0636582 0.0638119 0.0639658 0.0641201 0.0642748
0.0644299 0.0645853 0.0647411 0.0648973 0.0650538 0.0652106 0.0653676 0.065525 0.0656826 0.0658405
0.0659987 0.0661571 0.0663159 0.0664749 0.0666342 0.0667937 0.0669535 0.0671136 0.067274 0.0674347
0.0675956 0.0677569 0.0679185 0.0680804 0.0682426 0.0684051 0.0684653 0.0685255 0.0685858 0.0686461
0.0686943 0.0687997 0.0689052 0.0690109 0.0691168 0.0692227 0.0693872 0.0695519 0.069717 0.0698824
0.0700481 0.0702142 0.0703805 0.0705471 0.0707141 0.0708814 0.071049 0.0712169 0.0713851 0.0715536
0.0717224 0.0718914 0.0720607 0.0722301 0.0723998 0.0725698 0.07274 0.0729104 0.073081 0.0732519
0.0734229 0.0735941 0.0737655 0.0739371 0.0741088 0.0742808 0.074453 0.0746253 0.0747978 0.0749704
0.0751432 0.0753161 0.0754891 0.0756621 0.0758353 0.0760086 0.0761821 0.0763556 0.0765292 0.0767028
0.0768765 0.0770502 0.0772239 0.0773976 0.0775714 0.0777451 0.0779188 0.0780925 0.0782662 0.0784398
0.0786133 0.0787868 0.0789602 0.0791334 0.0793064 0.0794794 0.0796523 0.079825 0.0799975 0.0801699
0.0803421 0.0805141 0.080686 0.0808576 0.0810291 0.0812003 0.0813714 0.0815424 0.0817131 0.0818836
0.0820539 0.082224 0.0823939 0.0825636 0.0827331 0.0829023 0.0830714 0.0832403 0.0834091 0.0835776
0.083746 0.0839142 0.0840823 0.0842502 0.084418 0.0845857 0.0847532 0.0849206 0.0850879 0.0852551
0.0854222 0.0855891 0.085756 0.0859228 0.0860895 0.0862561 0.0864226 0.086589 0.0867553 0.0869216
0.0870878 0.0872539 0.08742 0.087586 0.087752 0.087918 0.0880839 0.0882498 0.0884157 0.0885815
0.0887473 0.0889131 0.0890789 0.0892447 0.0894105 0.0895763 0.089742 0.0899077 0.0900733 0.090239
0.0904046 0.0905701 0.0907357 0.0909012 0.0910667 0.0912322 0.0913976 0.0915629 0.0917283 0.0918935
0.0920587 0.0922238 0.0923888 0.0925537 0.0927185 0.0928831 0.0930477 0.0932121 0.0933763 0.0935403
0.0937042 0.093868 0.0940315 0.0941949 0.0943581 0.0945211 0.094684 0.0948467 0.0950092 0.0951715
0.0953336 0.0954955 0.0956571 0.0958185 0.0959796 0.0961406 0.0963013 0.0964617 0.0966219 0.0967818
0.0969414 0.0971008 0.0972599 0.0974188 0.0975774 0.0977358 0.0978941 0.0980522 0.0982102 0.098368
0.0985256 0.0986835 0.0988413 0.0989992 0.0991571 0.0993152 0.0994726 0.0996304 0.0997887 0.0999475
0.100107 0.100267 0.100429 0.100591 0.100755 0.100921 0.101087 0.101255 0.101426 0.101598
0.101773 0.101949 0.102129 0.102311 0.102496 0.102685 0.102765 0.102845 0.102926 0.103008
0.103079 0.103196 0.103315 0.103435 0.103556 0.103679 0.103888 0.1041 0.104317 0.104538
0.104763 0.104992 0.105224 0.10546 0.105699 0.105941 0.106182 0.106425 0.106671 0.106918
0.1072 0.107206 0.107211 0.107217 0.107223 0.107228 0.107481 0.107735 0.10799 0.108246
0.108502 0.108765 0.109027 0.109289 0.109551 0.109812 0.110074 0.110335 0.110595 0.110855
0.111113 0.111371 0.111627 0.111882 0.112136 0.112389 0.112641 0.112892 0.113142 0.113391
0.113639 0.113885 0.11413 0.114375 0.114618 0.114859 0.1151 0.11534 0.115579 0.115817
0.116054 0.11629 0.116525 0.116759 0.116992 0.117224 0.117456 0.117686 0.117916 0.118145
0.118373 0.1186 0.118826 0.119052 0.119277 0.119502 0.119725 0.119948 0.12017 0.120392
0.120613 0.120833 0.121053 0.121272 0.121491 0.121709 0.121926 0.122143 0.122359 0.122575
0.122791 0.123006 0.12322 0.123434 0.123647 0.12386 0.124073 0.124285 0.124497 0.124708
0.124919 0.12513 0.12534 0.12555 0.125759 0.125969 0.126177 0.126386 0.126594 0.126802
0.127009 0.127217 0.127424 0.12763 0.127837 0.128043 0.128249 0.128454 0.128659 0.128864
0.129069 0.129274 0.129478 0.129682 0.129886 0.13009 0.130293 0.130496 0.130699 0.130902
0.131104 0.131307 0.131509 0.131711 0.131913 0.132114 0.132316 0.132517 0.132718 0.132919
0.133119 0.13332 0.13352 0.133721 0.133921 0.134121 0.134321 0.13452 0.13472 0.134919
0.135118 0.135317 0.135516 0.135715 0.135914 0.136113 0.136311 0.136509 0.136708 0.136906
0.137104 0.137301 0.137499 0.137697 0.137894 0.138092 0.138289 0.138486 0.138683 0.13888
0.139077 0.139274 0.139471 0.139667 0.139864 0.14006 0.140257 0.140453 0.140649 0.140845
0.141041 0.141237 0.141433 0.141629 0.141825 0.14202 0.142216 0.142411 0.142607 0.142802
0.142997 0.143193 0.143388 0.143583 0.143778 0.143973 0.144168 0.144363 0.144557 0.144752
0.144947 0.145141 0.145336 0.14553 0.145725 0.145919 0.146114 0.146308 0.146502 0.146696
0.14689 0.147084 0.147278 0.147472 0.147666 0.14786 0.148054 0.148248 0.148442 0.148635
0.148829 0.149023 0.149216 0.14941 0.149604 0.149797 0.149991 0.150184 0.150377 0.150571
0.150764 0.150957 0.151151 0.151344 0.151537 0.15173 0.151923 0.152116 0.15231 0.152503
0.152696 0.152889 0.153082 0.153275 0.153467 0.15366 0.153853 0.154046 0.154239 0.154432
0.154624 0.154817 0.15501 0.155203 0.155395 0.155588 0.155781 0.155973 0.156166 0.156358
0.156551 0.156936 0.157321 0.157706 0.158091 0.158476 0.158649 0.158822 0.158995 0.159168
0.159341 0.159938 0.160534 0.161131 0.161727 0.162323 0.163861 0.165398 0.166934 0.168469
0.170004 0.171538 0.173071 0.174604 0.176137 0.17767 0.18073 0.183789 0.186848 0.189905
0.192964 0.192968 0.192972 0.192976 0.192979 0.192983 0.199103 0.20521 0.211306 0.217388
0.223459 0.225067 0.226674 0.228282 0.22989 0.231496 0.235947 0.240398 0.244848 0.249297
0.253744 0.259797 0.265849 0.271901 0.277953 0.284005 0.290057 0.296108 0.30216 0.308211
0.314263 0.320314 0.326366 0.332417 0.338469 0.344521 0.350573 0.356625 0.362677 0.368729
0.374782 0.380835 0.386888 0.392941 0.398994 0.405047 0.411101 0.41717 0.423254 0.429346
0.435439 0 7.47372e-05 0.000149483 0.000224236 0.000298998 0.000373768 0.000567161 0.000760616 0.000954133
0.00114771 0.00134135 0.00153506 0.00172882 0.00192265 0.00211654 0.00231049 0.0025045 0.00269858 0.0028927
0.00308689 0.00328113 0.00347543 0.00366978 0.00386417 0.00405861 0.0042531 0.00444763 0.00464221 0.00483682
0.00503148 0.00522617 0.0054209 0.00561567 0.00581047 0.00600531 0.00620019 0.00639511 0.00659007 0.00678507
0.00698011 0.00717519 0.00737031 0.00756548 0.00776069 0.00795594 0.00815124 0.00834658 0.00854197 0.0087374
0.00893289 0.00912842 0.00932401 0.00951965 0.00971534 0.00991108 0.0101069 0.0103027 0.0104987 0.0106946
0.0108907 0.0110868 0.0112829 0.0114792 0.0116755 0.0118718 0.0120682 0.0122647 0.0124613 0.0126579
0.0128546 0.0130514 0.0132483 0.0134452 0.0136422 0.0138393 0.0140365 0.0142338 0.0144312 0.0146286
0.0148262 0.0150238 0.0152216 0.0154194 0.0156174 0.0158154 0.0160136 0.0162118 0.0164102 0.0166086
0.0168072 0.0170059 0.0172047 0.0174036 0.0176026 0.0178018 0.0180011 0.0182005 0.0184 0.0185997
0.0187995 0.0189995 0.0191996 0.0193998 0.0196002 0.0198007 0.0200014 0.0202022 0.0204032 0.0206044
0.0208057 0.0210072 0.0212089 0.0214107 0.0216127 0.0218149 0.0220173 0.0222198 0.0224226 0.0226256
0.0228287 0.0230321 0.0232357 0.0234395 0.0236435 0.0238478 0.0240523 0.024257 0.0244619 0.0246671
0.0248726 0.0250783 0.0252842 0.0254904 0.0256969 0.0259037 0.0261108 0.0263181 0.0265258 0.0267337
0.026942 0.0271506 0.0273595 0.0275687 0.0277783 0.0279883 0.0281985 0.0284092 0.0286202 0.0288316
0.0290434 0.0292557 0.0294551 0.029655 0.0298552 0.0300558 0.0302313 0.0302497 0.0302681 0.0302865
0.0303049 0.0303233 0.0305382 0.0307535 0.0309694 0.0311858 0.0314027 0.0316201 0.0318382 0.0320568
0.032276 0.0324958 0.0327162 0.0329373 0.0331591 0.0333815 0.0336046 0.0338284 0.034053 0.0342784
0.0345046 0.0347316 0.0349593 0.035188 0.0354177 0.0356482 0.0358797 0.0361122 0.0363457 0.0365803
0.0368159 0.0370527 0.0372906 0.0375299 0.0377704 0.0380122 0.0382553 0.0384997 0.0387456 0.0389931
0.0392422 0.039493 0.0397453 0.0399997 0.040256 0.0405143 0.0407745 0.0410367 0.0413012 0.0415681
0.0418374 0.0421091 0.0423832 0.0426605 0.042941 0.0432248 0.0435119 0.0438031 0.0440981 0.0443971
0.0447004 0.0450085 0.0453201 0.0456362 0.0459566 0.0462815 0.0466132 0.0469469 0.0472853 0.0476283
0.047976 0.0483356 0.0485088 0.0486839 0.0488604 0.0490381 0.0491313 0.0493481 0.0495665 0.0497864
0.0500077 0.050238 0.0505393 0.0508446 0.0511532 0.0514622 0.0515468 0.0517042 0.0518614 0.0520182
0.0521748 0.0523403 0.0525107 0.0526798 0.0528475 0.0530138 0.0531352 0.0534027 0.0536652 0.0539224