# vtk DataFile Version 2.0
tracks
ASCII
DATASET POLYDATA
POINTS 19486 float
-1.001 1e-07 0.0011 -0.99955 9.76232e-08 0.00110002 -0.9981 9.52431e-08 0.00110004 -0.99665 9.28599e-08
0.00110007 -0.9952 9.04734e-08 0.0011001 -0.99375 8.80837e-08 0.00110014 -0.99 8.1878e-08 0.00110024
-0.98625 7.56869e-08 0.00110033 -0.9825 6.94941e-08 0.00110043 -0.97875 6.32788e-08 0.00110054 -0.975
5.7021e-08 0.00110067 -0.97125 5.07099e-08 0.00110082 -0.9675 4.44073e-08 0.00110097 -0.96375 3.81028e-08
0.00110112 -0.96 3.17764e-08 0.00110128 -0.95625 2.54092e-08 0.00110144 -0.953277 2.03273e-08 0.00110157
-0.950304 1.52459e-08 0.00110171 -0.947331 1.01632e-08 0.00110184 -0.944359 5.079e-09 0.00110198 -0.941399
1.7227e-17 0.00110211 -0.94062 -1.34411e-09 0.00110215 -0.93984 -2.68968e-09 0.00110218 -0.93906 -4.03671e-09
0.00110222 -0.93828 -5.38519e-09 0.00110226 -0.9375 -6.73514e-09 0.00110229 -0.93375 -1.32327e-08 0.00110247
-0.93 -1.97332e-08 0.00110265 -0.92625 -2.6236e-08 0.00110282 -0.9225 -3.27591e-08 0.001103 -0.91875
-3.93193e-08 0.00110318 -0.915 -4.59136e-08 0.00110337 -0.91125 -5.25137e-08 0.00110355 -0.9075 -5.91163e-08
0.00110374 -0.90375 -6.57436e-08 0.00110392 -0.9 -7.24165e-08 0.00110411 -0.89625 -7.91292e-08 0.0011043
-0.8925 -8.58926e-08 0.0011045 -0.88875 -9.27005e-08 0.0011047 -0.885 -9.95328e-08 0.00110491 -0.88125
-1.06368e-07 0.00110511 -0.8775 -1.13184e-07 0.00110531 -0.87375 -1.20062e-07 0.00110552 -0.87 -1.2698e-07
0.00110573 -0.86625 -1.3392e-07 0.00110595 -0.8625 -1.40862e-07 0.00110616 -0.85875 -1.47778e-07 0.00110638
-0.855 -1.54773e-07 0.0011066 -0.85125 -1.61817e-07 0.00110683 -0.8475 -1.68887e-07 0.00110706 -0.84375
-1.75961e-07 0.00110728 -0.84 -1.83025e-07 0.00110751 -0.83625 -1.90164e-07 0.00110775 -0.8325 -1.97365e-07
0.00110799 -0.82875 -2.046e-07 0.00110823 -0.825 -2.11838e-07 0.00110848 -0.82125 -2.19031e-07 0.00110872
-0.8175 -2.26351e-07 0.00110897 -0.81375 -2.33749e-07 0.00110923 -0.81 -2.4119e-07 0.00110949 -0.80625
-2.48633e-07 0.00110975 -0.8025 -2.56022e-07 0.00111001 -0.79875 -2.63561e-07 0.00111028 -0.795 -2.71189e-07
0.00111055 -0.79125 -2.78867e-07 0.00111083 -0.7875 -2.86549e-07 0.00111111 -0.78375 -2.94217e-07 0.00111139
-0.78 -3.01999e-07 0.00111167 -0.77625 -3.09873e-07 0.00111197 -0.7725 -3.178e-07 0.00111226 -0.76875
-3.25731e-07 0.00111256 -0.765 -3.33646e-07 0.00111286 -0.76125 -3.41684e-07 0.00111317 -0.7575 -3.49821e-07
0.00111348 -0.75375 -3.58013e-07 0.0011138 -0.75 -3.66209e-07 0.00111412 -0.74625 -3.74309e-07 0.00111444
-0.7425 -3.82625e-07 0.00111477 -0.73875 -3.91049e-07 0.00111511 -0.735 -3.99534e-07 0.00111545 -0.73125
-4.08024e-07 0.00111579 -0.7275 -4.164e-07 0.00111614 -0.72375 -4.25023e-07 0.00111649 -0.72 -4.33767e-07
0.00111685 -0.71625 -4.4258e-07 0.00111722 -0.7125 -4.51398e-07 0.00111759 -0.70875 -4.60081e-07 0.00111796
-0.705 -4.69045e-07 0.00111834 -0.70125 -4.78141e-07 0.00111873 -0.6975 -4.87312e-07 0.00111912 -0.69375
-4.9649e-07 0.00111952 -0.69 -5.0565e-07 0.00111992 -0.68625 -5.14986e-07 0.00112032 -0.6825 -5.24465e-07
0.00112074 -0.67875 -5.34026e-07 0.00112117 -0.675 -5.43594e-07 0.00112159 -0.67125 -5.53144e-07 0.00112202
-0.6675 -5.62889e-07 0.00112246 -0.66375 -5.72791e-07 0.00112291 -0.66 -5.82785e-07 0.00112337 -0.65625
-5.92786e-07 0.00112383 -0.6525 -6.0257e-07 0.00112428 -0.64875 -6.12765e-07 0.00112476 -0.645 -6.23128e-07
0.00112524 -0.64125 -6.33591e-07 0.00112573 -0.6375 -6.44062e-07 0.00112623 -0.63375 -6.54518e-07 0.00112672
-0.63 -6.65189e-07 0.00112723 -0.62625 -6.76031e-07 0.00112775 -0.6225 -6.86975e-07 0.00112828 -0.61875
-6.97929e-07 0.00112881 -0.615 -7.08869e-07 0.00112934 -0.61125 -7.2004e-07 0.00112988 -0.6075 -7.31394e-07
0.00113044 -0.60375 -7.42859e-07 0.00113101 -0.6 -7.54334e-07 0.00113158 -0.59625 -7.65798e-07 0.00113215
-0.5925 -7.77327e-07 0.00113272 -0.58875 -7.88868e-07 0.00113329 -0.585 -8.00529e-07 0.00113387 -0.58125
-8.12389e-07 0.00113447 -0.5775 -8.24028e-07 0.00113508 -0.57375 -8.36136e-07 0.0011357 -0.57 -8.48258e-07
0.00113631 -0.56625 -8.60506e-07 0.00113693 -0.5625 -8.72958e-07 0.00113757 -0.55875 -8.85124e-07 0.00113823
-0.555 -8.97841e-07 0.00113889 -0.55125 -9.10573e-07 0.00113955 -0.5475 -9.23434e-07 0.00114022 -0.54375
-9.36501e-07 0.00114091 -0.54 -9.49761e-07 0.00114162 -0.53625 -9.63105e-07 0.00114232 -0.5325 -9.76467e-07
0.00114303 -0.52875 -9.89964e-07 0.00114375 -0.525 -1.00368e-06 0.00114449 -0.52125 -1.01692e-06 0.00114524
-0.5175 -1.03093e-06 0.001146 -0.51375 -1.04496e-06 0.00114676 -0.51 -1.05914e-06 0.00114753 -0.50625
-1.07355e-06 0.00114832 -0.5025 -1.0874e-06 0.00114912 -0.49875 -1.10214e-06 0.00114993 -0.495 -1.11691e-06
0.00115074 -0.49125 -1.13185e-06 0.00115156 -0.4875 -1.14704e-06 0.0011524 -0.48375 -1.16249e-06 0.00115326
-0.48 -1.17805e-06 0.00115412 -0.47625 -1.19364e-06 0.00115498 -0.4725 -1.20941e-06 0.00115585 -0.46875
-1.22545e-06 0.00115674 -0.465 -1.24177e-06 0.00115765 -0.46125 -1.25822e-06 0.00115855 -0.4575 -1.2747e-06
0.00115946 -0.45375 -1.29136e-06 0.00116038 -0.45 -1.30828e-06 0.00116132 -0.44625 -1.32552e-06 0.00116227
-0.4425 -1.34289e-06 0.00116322 -0.43875 -1.3603e-06 0.00116418 -0.435 -1.3779e-06 0.00116514 -0.43125
-1.39579e-06 0.00116611 -0.4275 -1.41239e-06 0.0011671 -0.42375 -1.43077e-06 0.00116809 -0.42 -1.44919e-06
0.00116907 -0.41625 -1.46782e-06 0.00117007 -0.4125 -1.48676e-06 0.00117107 -0.40875 -1.50415e-06 0.00117207
-0.405 -1.52365e-06 0.00117308 -0.40125 -1.5432e-06 0.00117409 -0.3975 -1.56298e-06 0.0011751 -0.39375
-1.58307e-06 0.00117611 -0.39 -1.6036e-06 0.00117711 -0.38625 -1.62432e-06 0.00117811 -0.3825 -1.64509e-06
0.00117912 -0.37875 -1.66609e-06 0.00118012 -0.375 -1.68741e-06 0.0011811 -0.37125 -1.7092e-06 0.00118206
-0.3675 -1.73121e-06 0.00118302 -0.36375 -1.75328e-06 0.00118399 -0.36 -1.77559e-06 0.00118493 -0.35625
-1.79822e-06 0.00118583 -0.3525 -1.81796e-06 0.0011867 -0.34875 -1.84137e-06 0.00118757 -0.345 -1.86484e-06
0.00118843 -0.34125 -1.88856e-06 0.00118926 -0.3375 -1.91261e-06 0.00119001 -0.33375 -1.93726e-06 0.00119071
-0.33 -1.96218e-06 0.0011914 -0.32625 -1.98718e-06 0.00119209 -0.3225 -2.01242e-06 0.00119271 -0.31875
-2.03798e-06 0.00119323 -0.315 -2.06421e-06 0.00119364 -0.31125 -2.09075e-06 0.00119405 -0.3075 -2.11737e-06
0.00119447 -0.30375 -2.14421e-06 0.00119476 -0.3 -2.17134e-06 0.0011949 -0.29625 -2.1931e-06 0.00119488
-0.2925 -2.22146e-06 0.00119463 -0.28875 -2.25009e-06 0.00119415 -0.285 -2.27892e-06 0.00119349 -0.28125
-2.30782e-06 0.00119283 -0.2775 -2.32997e-06 0.00119218 -0.27375 -2.36e-06 0.00119119 -0.27 -2.39024e-06
0.00118986 -0.26625 -2.42065e-06 0.00118829 -0.2625 -2.45113e-06 0.00118673 -0.25875 -2.47347e-06 0.00118516
-0.255 -2.50512e-06 0.00118312 -0.25125 -2.5369e-06 0.00118059 -0.2475 -2.56877e-06 0.00117773 -0.24375
-2.60069e-06 0.00117488 -0.24 -2.63356e-06 0.00117204 -0.23625 -2.66672e-06 0.00116856 -0.2325 -2.69985e-06
0.00116445 -0.22875 -2.73295e-06 0.00115992 -0.225 -2.76609e-06 0.00115542 -0.22125 -2.78746e-06 0.00115094
-0.2175 -2.82142e-06 0.00114559 -0.21375 -2.85496e-06 0.00113939 -0.21 -2.88824e-06 0.00113268 -0.20625
-2.92153e-06 0.00112602 -0.2025 -2.94102e-06 0.0011194 -0.19875 -2.97558e-06 0.00111157 -0.195 -3.00935e-06
0.00110254 -0.19125 -3.04269e-06 0.00109293 -0.1875 -3.07603e-06 0.00108342 -0.18375 -3.11033e-06 0.001074
-0.18 -3.14358e-06 0.00106305 -0.17625 -3.17553e-06 0.0010506 -0.1725 -3.20691e-06 0.00103764 -0.16875
-3.23827e-06 0.00102486 -0.165 -3.27108e-06 0.00101225 -0.16125 -3.3021e-06 0.000997864 -0.1575 -3.33121e-06
0.000981734 -0.15375 -3.35981e-06 0.000965367 -0.15 -3.38839e-06 0.000949303 -0.14625 -3.41861e-06 0.000933532
-0.1425 -3.44523e-06 0.000915765 -0.13875 -3.46835e-06 0.000896063 -0.135 -3.49125e-06 0.000876626 -0.13125
-3.51426e-06 0.000857647 -0.1275 -3.51455e-06 0.00083911 -0.12375 -3.53537e-06 0.000818509 -0.12 -3.55324e-06
0.000796253 -0.11625 -3.57136e-06 0.00077464 -0.1125 -3.58973e-06 0.000753649 -0.10875 -3.5843e-06 0.000733253
-0.105 -3.59751e-06 0.000710835 -0.10125 -3.60701e-06 0.000687456 -0.0975 -3.61707e-06 0.000664872 -0.0937499
-3.62765e-06 0.000643053 -0.0899999 -3.63988e-06 0.000621963 -0.0862499 -3.64821e-06 0.000599343 -0.0824999 -3.65572e-06
0.000576661 -0.0787499 -3.66393e-06 0.000554842 -0.0749999 -3.67281e-06 0.000533854 -0.0712499 -3.68309e-06 0.000513652
-0.0674999 -3.69339e-06 0.000493372 -0.0637499 -3.70435e-06 0.000473741 -0.0599999 -3.71591e-06 0.000454879 -0.0562499
-3.72806e-06 0.000436755 -0.0524999 -3.71637e-06 0.000419332 -0.0487498 -3.72305e-06 0.000404256 -0.0449998 -3.73037e-06
0.000389705 -0.0412498 -3.73831e-06 0.000375661 -0.0374998 -3.74685e-06 0.000362108 -0.0337498 -3.75606e-06 0.000349024
-0.0299998 -3.75832e-06 0.000340398 -0.0262498 -3.76108e-06 0.000331976 -0.0224998 -3.76434e-06 0.000323755 -0.0187499
-3.76808e-06 0.00031573 -0.0149999 -3.77186e-06 0.000307896 -0.0112499 -3.77391e-06 0.00030447 -0.0074999 -3.77617e-06
0.000301082 -0.00374991 -3.77865e-06 0.000297729 6.11913e-08 -3.78133e-06 0.000294413 0.00375005 -3.76406e-06 0.000291133
0.00750005 -3.76416e-06 0.000287894 0.01125 -3.76444e-06 0.00028469 0.015 -3.76492e-06 0.00028152 0.01875
-3.76558e-06 0.000278385 0.0225 -3.75087e-06 0.000277348 0.02625 -3.75135e-06 0.000276318 0.03 -3.75189e-06
0.000275291 0.03375 -3.75248e-06 0.000274268 0.0375 -3.75313e-06 0.000273249 0.04125 -3.73684e-06 0.000272761
0.045 -3.73343e-06 0.000272275 0.04875 -3.73004e-06 0.00027179 0.0525 -3.72666e-06 0.000271306 0.05625
-3.72331e-06 0.000270823 0.06 -3.71663e-06 0.000270625 0.06375 -3.70829e-06 0.000270427 0.0675 -3.69994e-06
0.00027023 0.07125 -3.69158e-06 0.000270032 0.075 -3.68321e-06 0.000269835 0.07875 -3.66021e-06 0.000269787
0.0825 -3.64676e-06 0.00026974 0.08625 -3.63328e-06 0.000269692 0.09 -3.61976e-06 0.000269645 0.09375
-3.60622e-06 0.000269598 0.0975 -3.58008e-06 0.000269601 0.10125 -3.56274e-06 0.000269605 0.105 -3.54536e-06
0.000269609 0.10875 -3.52794e-06 0.000269614 0.1125 -3.51047e-06 0.000269618 0.11625 -3.49668e-06 0.000269634
[...]
POINT_DATA 19486
FIELD attributes 3
age 1 19486 float
0 7.30129e-05 0.000146029 0.00021905 0.000292073 0.000365101 0.000553975 0.000742849 0.000931723 0.00112061 0.00130954
0.00149849 0.00168745 0.0018764 0.00206538 0.00225438 0.00240425 0.00255412 0.00270398 0.00285385 0.00300304
0.00304237 0.0030817 0.00312103 0.00316036 0.00319969 0.00338882 0.00357796 0.0037671 0.00395625 0.00414545
0.00433468 0.00452392 0.00471315 0.00490241 0.00509171 0.00528106 0.00547044 0.00565988 0.00584933 0.00603879
0.00622825 0.00641775 0.00660731 0.00679689 0.00698647 0.00717605 0.00736568 0.00755537 0.00774508 0.00793479
0.0081245 0.00831427 0.00850409 0.00869395 0.0088838 0.00907366 0.00926357 0.00945355 0.00964355 0.00983356
0.0100236 0.0102136 0.0104038 0.010594 0.0107841 0.0109743 0.0111645 0.0113549 0.0115452 0.0117356
0.0119259 0.0121163 0.0123068 0.0124974 0.0126879 0.0128785 0.0130691 0.0132598 0.0134505 0.0136413
0.013832 0.0140229 0.0142138 0.0144048 0.0145958 0.0147868 0.0149778 0.015169 0.0153602 0.0155514
0.0157427 0.015934 0.0161254 0.0163169 0.0165084 0.0166999 0.0168915 0.0170832 0.017275 0.0174668
0.0176586 0.0178505 0.0180425 0.0182346 0.0184267 0.0186188 0.018811 0.0190034 0.0191959 0.0193883
0.0195807 0.0197733 0.0199661 0.0201589 0.0203517 0.0205446 0.0207374 0.0209302 0.0211232 0.0213162
0.0215095 0.0217027 0.021896 0.0220894 0.0222829 0.0224766 0.0226703 0.022864 0.0230578 0.0232518
0.0234461 0.0236403 0.0238345 0.0240288 0.0242234 0.0244181 0.0246129 0.0248077 0.0250026 0.0251977
0.0253931 0.0255885 0.0257839 0.0259794 0.0261752 0.0263712 0.0265673 0.0267633 0.0269596 0.0271561
0.0273529 0.0275497 0.0277465 0.0279435 0.0281408 0.0283384 0.028536 0.0287337 0.0289315 0.0291297
0.0293282 0.0295268 0.0297253 0.0299241 0.0301232 0.0303228 0.0305223 0.0307219 0.0309217 0.0311219
0.0313226 0.0315232 0.0317239 0.0319248 0.0321262 0.0323281 0.03253 0.0327318 0.0329341 0.0331368
0.0333399 0.0335431 0.0337463 0.0339499 0.034154 0.0343586 0.0345633 0.0347679 0.0349729 0.0351785
0.0353847 0.0355908 0.035797 0.0360036 0.0362108 0.0364185 0.0366269 0.0368358 0.0370452 0.0372546
0.0374639 0.0376739 0.0378844 0.0380954 0.0383063 0.0385172 0.0387286 0.0389406 0.039153 0.0393652
0.0395774 0.0397901 0.0400032 0.0402166 0.0404298 0.0406429 0.0408564 0.0410701 0.041284 0.0414976
0.0417111 0.0419246 0.0421381 0.0423515 0.0425646 0.0427774 0.0429899 0.0432019 0.0434136 0.0436249
0.0438358 0.0440459 0.0442551 0.0444637 0.0446719 0.0448797 0.045086 0.0452909 0.0454952 0.0456991
0.0459026 0.046104 0.0463034 0.0465025 0.0467013 0.0468997 0.0470954 0.0472892 0.0474828 0.0476762
0.0478693 0.0480591 0.0482476 0.048436 0.0486244 0.0488128 0.0489975 0.0491817 0.049366 0.0495505
0.049735 0.0499162 0.0500977 0.0502793 0.0504611 0.0506432 0.0508231 0.0510032 0.0511835 0.051364
0.0515446 0.0517245 0.0519045 0.0520846 0.0522647 0.052445 0.0526253 0.0528057 0.0529861 0.0531667
0.0533473 0.053528 0.0537087 0.0538894 0.0540701 0.0542512 0.0544322 0.0546133 0.0547944 0.0549755
0.0551569 0.0553383 0.0555197 0.0557011 0.0558826 0.0560643 0.0562461 0.0564278 0.0566095 0.0567913
0.0569733 0.0571554 0.0573374 0.0575194 0.0577015 0.0578838 0.0580661 0.0582485 0.0584308 0.0586131
0.0587957 0.0589783 0.059161 0.0593436 0.0595262 0.0597091 0.059892 0.060075 0.0602579 0.0604408
0.060624 0.0608073 0.0609905 0.0611737 0.0613569 0.0615405 0.061724 0.0619075 0.0620911 0.0622746
0.0624584 0.0626422 0.0628261 0.0630099 0.0631937 0.0633778 0.0635619 0.063746 0.0639301 0.0641142
0.0642986 0.0644829 0.0646673 0.0648516 0.065036 0.0652205 0.0654051 0.0655897 0.0657743 0.0659589
0.0661437 0.0663285 0.0665133 0.0666981 0.0668829 0.0670679 0.067253 0.0674382 0.0676233 0.0678085
0.0679937 0.068179 0.0683643 0.0685496 0.0687349 0.0689203 0.0691057 0.0692912 0.0694766 0.0696621
0.0698476 0.0700331 0.0702187 0.0704043 0.0705899 0.0707755 0.0709612 0.0711468 0.0713325 0.0715182
0.0717039 0.0718897 0.0720754 0.0722612 0.072447 0.0726327 0.0728186 0.0730044 0.0731902 0.0733761
0.0735619 0.0737478 0.0739337 0.0741195 0.0743054 0.0744913 0.0746772 0.0748631 0.075049 0.0752349
0.0754063 0.0755777 0.0757491 0.0759205 0.0761012 0.0761138 0.0761264 0.0761391 0.0761517 0.0761643
0.0763502 0.0765361 0.0767219 0.0769078 0.0770937 0.0772795 0.0774654 0.0776512 0.077837 0.0780228
0.0782087 0.0783945 0.0785802 0.078766 0.0789518 0.0791376 0.0793233 0.0795091 0.0796948 0.0798806
0.0800663 0.0802521 0.0804378 0.0806235 0.0808092 0.080995 0.0811807 0.0813664 0.0815522 0.0817379
0.0819237 0.0821094 0.0822951 0.0824809 0.0826666 0.0828524 0.0830382 0.083224 0.0834097 0.0835955
0.0837814 0.0839672 0.084153 0.0843389 0.0845247 0.0847106 0.0848965 0.0850824 0.0852683 0.0854542
0.0856402 0.0858262 0.0860121 0.0861981 0.0863841 0.0865701 0.0867561 0.0869422 0.0871282 0.0873142
0.0875003 0.0876864 0.0878725 0.0880586 0.0882447 0.0884308 0.088617 0.0888031 0.0889893 0.0891754
0.0893616 0.0895478 0.089734 0.0899202 0.0901064 0.0902926 0.0904789 0.0906651 0.0908513 0.0910376
0.0912238 0.0914101 0.0915964 0.0917827 0.091969 0.0921553 0.0923416 0.0925279 0.0927142 0.0929006
0.0930869 0.0932733 0.0934596 0.093646 0.0938323 0.0940188 0.0942051 0.0943915 0.0945779 0.0947643
0.0949508 0.0951372 0.0953237 0.0955101 0.0956966 0.095883 0.0960695 0.096256 0.0964425 0.096629
0.0968155 0.0970021 0.0971887 0.0973753 0.0975619 0.0977486 0.0979352 0.0981219 0.0983086 0.0984953
0.098682 0.0988687 0.0990554 0.0992422 0.0994289 0.0996157 0.0998024 0.0999892 0.100176 0.100363
0.100549 0.100736 0.100923 0.10111 0.101296 0.101483 0.10167 0.101857 0.102044 0.10223
0.102417 0.102604 0.102791 0.102978 0.103165 0.103351 0.103538 0.103726 0.103913 0.1041
0.104287 0.104474 0.104661 0.104849 0.105036 0.105223 0.105411 0.105598 0.105786 0.105974
0.106161 0.106349 0.106537 0.106725 0.106913 0.107101 0.10729 0.107478 0.107666 0.107855
0.108043 0.108232 0.108421 0.10861 0.108799 0.108987 0.109177 0.109366 0.109555 0.109744
0.109933 0.110123 0.110313 0.110502 0.110692 0.110881 0.111071 0.111261 0.111451 0.111641
0.11183 0.11202 0.11221 0.1124 0.11259 0.11278 0.11297 0.11316 0.11335 0.11354
0.11373 0.11392 0.114111 0.114301 0.114491 0.114681 0.114872 0.115062 0.115252 0.115443
0.115633 0.115823 0.116014 0.116204 0.116394 0.116585 0.116775 0.116966 0.117156 0.117346
0.117537 0.117727 0.117918 0.118108 0.118298 0.118489 0.118679 0.11887 0.11906 0.11925
0.119441 0.119631 0.119822 0.120012 0.120202 0.120393 0.120583 0.120774 0.120964 0.121154
0.121345 0.121535 0.121726 0.121916 0.122107 0.122297 0.122487 0.122678 0.122868 0.123059
0.123249 0.123439 0.12363 0.12382 0.124011 0.124201 0.124392 0.124582 0.124772 0.124963
0.125153 0.125344 0.125534 0.125725 0.125915 0.126106 0.126296 0.126487 0.126677 0.126868
0.127058 0.127249 0.127439 0.12763 0.12782 0.128011 0.128201 0.128392 0.128583 0.128773
0.128964 0.129154 0.129345 0.129535 0.129726 0.129916 0.130107 0.130298 0.130488 0.130679
0.130869 0.13106 0.13125 0.131441 0.131632 0.131822 0.132013 0.132203 0.132394 0.132584
0.132775 0.132965 0.133156 0.133346 0.133537 0.133727 0.133917 0.134108 0.134298 0.134489
0.134679 0.13487 0.13506 0.135251 0.135441 0.135631 0.135821 0.136012 0.136202 0.136393
0.136582 0.136773 0.136963 0.137153 0.137344 0.137533 0.137724 0.137914 0.138104 0.138294
0.138484 0.138674 0.138864 0.139054 0.139244 0.139434 0.139624 0.139814 0.140004 0.140194
0.140383 0.140573 0.140763 0.140953 0.141143 0.141332 0.141522 0.141711 0.141901 0.142091
0.14228 0.14247 0.142659 0.142849 0.143039 0.143228 0.143417 0.143607 0.143797 0.143986
0.144175 0.144364 0.144554 0.144743 0.144933 0.145122 0.145311 0.145501 0.14569 0.145879
0.146068 0.146257 0.146447 0.146636 0.146825 0.147014 0.147203 0.147393 0.147582 0.147771
0.14796 0.148149 0.148338 0.148527 0.148716 0.148905 0.149094 0.149283 0.149472 0.149661
0.14985 0.150039 0.150228 0.150417 0.150606 0.150794 0.150983 0.151172 0.151361 0.15155
0.151926 0.152303 0.152679 0.153056 0.153432 0.154183 0.154935 0.155686 0.156437 0.157188
0.158689 0.160189 0.16169 0.163191 0.164691 0.166192 0.167692 0.169192 0.170693 0.172193
0.175193 0.178193 0.181194 0.184194 0.187194 0.193194 0.199194 0.205195 0.211195 0.217195
0.223195 0.229195 0.235195 0.241195 0.247195 0.253195 0.259195 0.265195 0.271195 0.277195
0.283196 0.289196 0.295196 0.301196 0.307196 0.313196 0.319196 0.325196 0.331196 0.337196
0.343196 0.349196 0.355196 0.361196 0.367196 0.373196 0.379196 0.385196 0.391196 0.397196
0.403196 0.403285 0 7.36828e-05 0.00014737 0.00022106 0.000294755 0.000368453 0.000559065 0.000749711
0.00094039 0.0011311 0.00131997 0.00132034 0.00132072 0.0013211 0.00132147 0.00132185 0.00151263 0.00170345
0.0018943 0.00208519 0.00227611 0.00246707 0.00265806 0.00284909 0.00304016 0.00323127 0.00342242 0.0036136
0.00380483 0.0039961 0.0041874 0.00437875 0.00457014 0.00476158 0.00495306 0.00514458 0.00533614 0.00552775
0.00571941 0.00591112 0.00610287 0.00629466 0.00648651 0.00667841 0.00687035 0.00706235 0.0072544 0.0074465
0.00763865 0.00783086 0.00802312 0.00821543 0.0084078 0.00860023 0.00879272 0.00898527 0.00917787 0.00937053
0.00956326 0.00975605 0.0099489 0.0101418 0.0103348 0.0105278 0.010721 0.0109141 0.0111074 0.0113007
0.0114941 0.0116876 0.0118811 0.0120747 0.0122684 0.0124622 0.012656 0.0128499 0.0130439 0.013238
0.0134322 0.0136265 0.0138208 0.0140152 0.0142097 0.0144043 0.014599 0.0147938 0.0149887 0.0151837
0.0153788 0.015574 0.0157693 0.0159646 0.0161601 0.0163557 0.0165514 0.0167472 0.0169432 0.0171392
0.0173354 0.0175317 0.0177281 0.0179246 0.0181212 0.018318 0.0185149 0.0187119 0.0189091 0.0191064
0.0193038 0.0195014 0.0196991 0.019897 0.020095 0.0202932 0.0204915 0.02069 0.0208886 0.0210874
0.0212864 0.0214856 0.0216849 0.0218844 0.022084 0.0222839 0.0224839 0.0226842 0.0228846 0.0230852
0.023286 0.0234871 0.0236883 0.0238897 0.0240914 0.0242933 0.0244954 0.0246978 0.0249003 0.0251032
0.0253063 0.0255096 0.0257132 0.025917 0.0261211 0.0263255 0.0265301 0.0267351 0.0269403 0.0271458
0.0273517 0.0275578 0.0277643 0.0279711 0.0281782 0.0283856 0.0285934 0.0288016 0.0290101 0.0292189
0.0294282 0.0296378 0.0298479 0.0300583 0.0302691 0.0304804 0.0306921 0.0309043 0.0311168 0.0313299
0.0315434 0.0317574 0.0319719 0.0321869 0.0324025 0.0326185 0.0328352 0.0330523 0.03327 0.0334884
0.0337073 0.0339268 0.034147 0.0343677 0.0345892 0.0348114 0.0350342 0.0352577 0.035482 0.035707
0.0359327 0.0361593 0.0363866 0.0366147 0.0368437 0.0370736 0.0373043 0.037536 0.0377685 0.038002
0.0382364 0.0384718 0.0387082 0.0389457 0.0391842 0.0394238 0.0396646 0.0399064 0.0401494 0.0403934
0.0406386 0.0408851 0.0411328 0.0413818 0.041632 0.0418835 0.0421364 0.0423906 0.042646 0.0429026
0.0431603 0.0434193 0.04368 0.0439419 0.044205 0.0444693 0.0447345 0.0450018 0.0452695 0.0455377
0.0458065 0.0460758 0.0463476 0.0464737 0.0465998 0.0467259 0.0468518 0.0469313 0.047086 0.0472406
0.047395 0.0475492 0.0477045 0.0479752 0.0482441 0.0485112 0.0487764 0.0490447 0.0491901 0.0493345
0.0494776 0.0496196 0.0497293 0.0498502 0.0499704 0.0500897 0.0502083 0.0503271 0.0505743 0.0508165
0.0510537 0.0512862 0.0515152 0.0515303 0.0515454 0.0515605 0.0515755 0.0515906 0.0517975 0.0519998
0.0521976 0.0523913 0.0525789 0.0526899 0.0527992 0.0529069 0.0530133 0.0531467 0.0532213 0.0532953
0.0533686 0.0534413 0.0535128 0.0536871 0.0538578 0.054025 0.0541889 0.0543465 0.0544846 0.0546211
0.0547562 0.0548897 0.0551122 0.0551264 0.0551406 0.0551548 0.0551689 0.055185 0.0553169 0.0554483
0.0555791 0.0557094 0.0558384 0.0559813 0.0561243 0.0562674 0.0564106 0.0565538 0.056697 0.0568406
0.0569845 0.0571287 0.0572733 0.0574183 0.0575636 0.0577093 0.0578554 0.0580018 0.0581486 0.0582956
0.058443 0.0585907 0.0587387 0.0588871 0.0590358 0.0591848 0.059334 0.0594837 0.0596336 0.0597838
0.0599343 0.0600851 0.0602362 0.0603876 0.0605393 0.0606914 0.0608437 0.0609964 0.0611494 0.0613027
0.0614563 0.0616103 0.0617646 0.0619192 0.0620742 0.0622295 0.0623852 0.0625412 0.0626975 0.0628542
0.0630113 0.0631687 0.0633264 0.0634845 0.063643 0.0638018 0.0639609 0.0641204 0.0642803 0.0644404
0.0646009 0.0647618 0.0649229 0.0650844 0.0652463 0.0654084 0.0655709 0.0657337 0.0658968 0.0660601
0.0662238 0.0663878 0.0665521 0.0667167 0.0668815 0.0670466 0.0672121 0.0673777 0.0675437 0.0677099
0.0678764 0.0680431 0.06821 0.0683773 0.0685447 0.0687124 0.0688804 0.0690485 0.0692169 0.0693856
0.0695544 0.0697234 0.0698926 0.0700621 0.0702318 0.0704016 0.0705717 0.0707419 0.0709123 0.0710829
0.0712537 0.0714246 0.0715957 0.071767 0.0719385 0.0721101 0.0722818 0.0724537 0.0726258 0.0727979
0.0729702 0.0731426 0.0733152 0.0734878 0.0736606 0.0738335 0.0740065 0.0741795 0.0743527 0.074526
0.0746992 0.0748726 0.0750461 0.0752196 0.0753932 0.0755668 0.0757405 0.0759142 0.0760879 0.0762617
0.0764354 0.0766091 0.0767829 0.0769566 0.0771304 0.0773041 0.0774778 0.0776515 0.077663 0.0776744
0.0776859 0.0776973 0.0777083 0.0778706 0.0780329 0.078195 0.0783572 0.0785193 0.0786928 0.0788662
0.0790395 0.0792128 0.0793861 0.0795593 0.0797324 0.0799054 0.0800785 0.0802514 0.0804244 0.0805973
0.0807702 0.0809431 0.081116 0.0812889 0.0814617 0.0816346 0.0818075 0.0819804 0.0821534 0.0823264
0.0824995 0.0826727 0.0828459 0.0830191 0.0831925 0.0833659 0.0835394 0.083713 0.0838867 0.0840605
0.0842344 0.0844085 0.0845826 0.0847568 0.0849312 0.0851056 0.0852802 0.0854548 0.0856296 0.0858045
0.0859796 0.0861547 0.08633 0.0865053 0.0866808 0.0868563 0.087032 0.0872077 0.0873836 0.0875596
0.0877357 0.0879119 0.0880882 0.0882645 0.088441 0.0886175 0.0887941 0.0889709 0.0891477 0.0893247
0.0895017 0.0896788 0.089856 0.0900333 0.0902106 0.090388 0.0905655 0.0907431 0.0909208 0.0910986
0.0912765 0.0914544 0.0916325 0.0918106 0.0919887 0.092167 0.0923453 0.0925237 0.0927023 0.0928809
0.0930596 0.0932384 0.0934173 0.0935962 0.0937753 0.0939544 0.0941336 0.0943129 0.0944923 0.0946718
0.0948514 0.0950311 0.0952109 0.0953908 0.0955708 0.0957509 0.0959311 0.0961114 0.0962919 0.0964724
0.0966531 0.096834 0.0970149 0.0971961 0.0973774 0.0975588 0.0977404 0.0979222 0.0981047 0.0982873
0.0984702 0.0986531 0.0988363 0.0990187 0.0992011 0.0993836 0.0995661 0.0997486 0.0999315 0.100114
0.100297 0.10048 0.100663 0.100845 0.101028 0.101211 0.101394 0.101577 0.10176 0.101944
0.102127 0.102311 0.102495 0.102679 0.102864 0.103049 0.103234 0.10342 0.103606 0.103794
0.103981 0.10417 0.104359 0.104549 0.104739 0.104931 0.105123 0.105316 0.10551 0.105706
0.105903 0.106101 0.1063 0.1065 0.106701 0.106904 0.107108 0.107314 0.107521 0.10773
0.10794 0.108152 0.108365 0.10858 0.108796 0.109014 0.109234 0.109455 0.109678 0.109903
0.110129 0.110357 0.110586 0.110817 0.11105 0.111284 0.11152 0.111757 0.111995 0.112236
0.112477 0.11272 0.112964 0.113209 0.113456 0.113704 0.113954 0.114204 0.114456 0.114708
0.114961 0.115216 0.115471 0.115728 0.115985 0.116243 0.116502 0.116762 0.117023 0.117284
0.117545 0.117808 0.118071 0.118335 0.118599 0.118864 0.119129 0.119395 0.119661 0.119928
0.120195 0.120462 0.12073 0.120998 0.121267 0.121536 0.121805 0.122075 0.122345 0.122615
0.122885 0.123155 0.123426 0.123697 0.123969 0.124241 0.124513 0.124785 0.125057 0.125329
0.125602 0.125875 0.126148 0.126421 0.126695 0.126969 0.127242 0.127516 0.127537 0.127558
0.127579 0.127601 0.127621 0.127875 0.128128 0.128381 0.128634 0.128888 0.129162 0.129437
0.129712 0.129987 0.130262 0.130536 0.130811 0.131086 0.131361 0.131636 0.13191 0.132185
0.132459 0.132734 0.133008 0.133282 0.133556 0.133831 0.134105 0.134379 0.134652 0.134925
0.135198 0.135471 0.135744 0.136016 0.136288 0.136561 0.136833 0.137105 0.137376 0.137646
0.137917 0.138187 0.138457 0.138726 0.138995 0.139265 0.139535 0.139804 0.140071 0.140339
0.140606 0.140873 0.14114 0.141406 0.141672 0.141939 0.142205 0.142471 0.142736 0.143001
0.143266 0.143531 0.143795 0.144059 0.144323 0.144587 0.14485 0.145114 0.145192 0.14527
0.145349 0.145427 0.145507 0.145691 0.145874 0.146058 0.146241 0.146424 0.146685 0.146946
0.147207 0.147468 0.147728 0.147986 0.148246 0.148506 0.148764 0.149023 0.149279 0.149537
0.149795 0.150052 0.150309 0.150563 0.15082 0.151076 0.151332 0.151587 0.151841 0.152096
0.15235 0.152605 0.152859 0.153111 0.153365 0.153618 0.153872 0.154125 0.154376 0.154629
0.154881 0.155133 0.155385 0.155635 0.155887 0.156138 0.15639 0.15664 0.156889 0.157139
0.157389 0.15764 0.157889 0.158137 0.158385 0.158634 0.158883 0.159131 0.159378 0.159625
0.159872 0.16012 0.160366 0.160611 0.160857 0.161103 0.161348 0.161593 0.161836 0.16208
0.162324 0.162568 0.162811 0.163052 0.163294 0.163536 0.163778 0.164019 0.164259 0.164499
0.164739 0.164978 0.165218 0.165456 0.165694 0.165932 0.166169 0.166406 0.166445 0.166484
0.166523 0.166562 0.166601 0.167033 0.167464 0.167887 0.168297 0.168696 0.169513 0.170329
0.171142 0.171951 0.17275 0.174288 0.175823 0.177357 0.178891 0.180425 0.181937 0.183457
0.184976 0.186493 0.18801 0.191023 0.194039 0.197054 0.200068 0.20308 0.209087 0.215095
0.221103 0.227111 0.233119 0.23912 0.245125 0.251129 0.257134 0.263138 0.269139 0.275143
0.281147 0.287151 0.293154 0.299155 0.305158 0.311161 0.317165 0.323167 0.329168 0.335171
0.341174 0.347176 0.353179 0.359179 0.365182 0.371184 0.377186 0.383188 0.389189 0.395191
0.401193 0.407194 0.413196 0.419197 0.424408 0 7.36588e-05 0.000147322 0.00022099 0.000294663
0.000368341 0.000558898 0.000749488 0.000940111 0.00113077 0.00132145 0.00132617 0.00133088 0.00133559 0.00134031
0.00134502 0.00153103 0.00171708 0.00190316 0.00208927 0.00227541 0.0024663 0.00265723 0.0028482 0.0030392
0.00323024 0.00342132 0.00361244 0.0038036 0.00399479 0.00418603 0.0043773 0.00456862 0.00475998 0.00495138
0.00514282 0.00533431 0.00552584 0.00571742 0.00590904 0.0061007 0.00629242 0.00648418 0.00667599 0.00686784
0.00705975 0.0072517 0.00744371 0.00763577 0.00782788 0.00802004 0.00821226 0.00840453 0.00859686 0.00878924
0.00898168 0.00917417 0.00936673 0.00955934 0.00975202 0.00994476 0.0101376 0.0103304 0.0105233 0.0107163
0.0109094 0.0111025 0.0112957 0.011489 0.0116823 0.0118757 0.0120692 0.0122627 0.0124563 0.01265
0.0128438 0.0130377 0.0132316 0.0134256 0.0136197 0.0138139 0.0140082 0.0142025 0.0143969 0.0145915
0.0147861 0.0149808 0.0151756 0.0153705 0.0155655 0.0157606 0.0159558 0.0161511 0.0163465 0.016542
0.0167376 0.0169333 0.0171291 0.0173251 0.0175211 0.0177173 0.0179136 0.01811 0.0183065 0.0185032
0.0187 0.0188969 0.0190939 0.0192911 0.0194884 0.0196859 0.0198835 0.0200812 0.0202791 0.0204772
0.0206753 0.0208737 0.0210722 0.0212709 0.0214697 0.0216687 0.0218679 0.0220672 0.0222667 0.0224664
0.0226663 0.0228664 0.0230667 0.0232671 0.0234678 0.0236687 0.0238698 0.024071 0.0242726 0.0244743
0.0246763 0.0248784 0.0250809 0.0252835 0.0254865 0.0256896 0.025893 0.0260967 0.0263007 0.0265049
0.0267094 0.0269142 0.0271193 0.0273247 0.0275304 0.0277364 0.0279428 0.0281494 0.0283565 0.0285638
0.0287715 0.0289796 0.029188 0.0293969 0.0296061 0.0298157 0.029859 0.0299023 0.0299456 0.0299889
0.0300312 0.0301985 0.0303661 0.030534 0.0307021 0.0308705 0.0310827 0.0312955 0.0315087 0.0317224
0.0319367 0.0321514 0.0323668 0.0325827 0.0327992 0.0330163 0.0332339 0.0334523 0.0336713 0.0338909
0.0341113 0.0343323 0.0345541 0.0347767 0.0350001 0.0352243 0.0354492 0.0356751 0.0359019 0.0361296
0.0363583 0.0365879 0.0368186 0.0370504 0.0372833 0.0375173 0.0377525 0.0379889 0.0382266 0.0384657
0.0387061 0.0389479 0.0391913 0.0394364 0.0396832 0.0399315 0.0401815 0.0404334 0.0406873 0.0409432
0.0412012 0.0414612 0.0417237 0.0419888 0.0422566 0.0425268 0.0428004 0.043077 0.0433567 0.0436397
0.0439265 0.0442161 0.0445098 0.0448076 0.0451097 0.0454173 0.0457271 0.0460415 0.0463604 0.0466839
0.0470177 0.0471735 0.0473306 0.0474888 0.0476479 0.0477251 0.0479319 0.0481401 0.0483495 0.0485602
0.0487793 0.0490789 0.0493807 0.0496841 0.0499865 0.0500772 0.0501971 0.0503167 0.0504359 0.0505547
0.0506782 0.0508746 0.0510688 0.0512608 0.0514506 0.0515741 0.0517787 0.0519797 0.0521772 0.0523712
0.0525767 0.0526029 0.0526291 0.0526552 0.0526812 0.0527064 0.0529071 0.0531022 0.0532921 0.0534773