# vtk DataFile Version 2.0
tracks
ASCII
DATASET POLYDATA
POINTS 19461 float
-1.001 1e-07 0.0011 -0.99955 9.78729e-08 0.00110002 -0.9981 9.57337e-08 0.00110004 -0.99665 9.35825e-08
0.00110007 -0.9952 9.14194e-08 0.0011001 -0.99375 8.92441e-08 0.00110014 -0.99 8.357e-08 0.00110024
-0.98625 7.79108e-08 0.00110034 -0.9825 7.22501e-08 0.00110044 -0.97875 6.65331e-08 0.00110054 -0.975
6.07074e-08 0.00110068 -0.97125 5.47615e-08 0.00110083 -0.9675 4.8825e-08 0.00110098 -0.96375 4.28866e-08
0.00110113 -0.96 3.68898e-08 0.00110129 -0.95625 3.07809e-08 0.00110145 -0.952541 2.46247e-08 0.00110162
-0.948831 1.84692e-08 0.00110179 -0.945122 1.23116e-08 0.00110195 -0.941413 6.10217e-09 0.00110212 -0.937828
1.73371e-17 0.00110229 -0.937762 -1.13447e-10 0.00110229 -0.937697 -2.26927e-10 0.0011023 -0.937631 -3.40439e-10
0.0011023 -0.937566 -4.53984e-10 0.0011023 -0.9375 -5.67561e-10 0.00110231 -0.93375 -7.06185e-09 0.00110249
-0.93 -1.35585e-08 0.00110266 -0.92625 -2.00575e-08 0.00110284 -0.9225 -2.66086e-08 0.00110302 -0.91875
-3.32585e-08 0.0011032 -0.915 -4.00045e-08 0.00110339 -0.91125 -4.67559e-08 0.00110357 -0.9075 -5.35098e-08
0.00110376 -0.90375 -6.03174e-08 0.00110395 -0.9 -6.72265e-08 0.00110414 -0.89625 -7.42318e-08 0.00110433
-0.8925 -8.13435e-08 0.00110453 -0.88875 -8.8556e-08 0.00110473 -0.885 -9.58224e-08 0.00110494 -0.88125
-1.03092e-07 0.00110514 -0.8775 -1.10343e-07 0.00110535 -0.87375 -1.17707e-07 0.00110555 -0.87 -1.25163e-07
0.00110577 -0.86625 -1.32669e-07 0.00110599 -0.8625 -1.40178e-07 0.0011062 -0.85875 -1.4766e-07 0.00110642
-0.855 -1.55259e-07 0.00110664 -0.85125 -1.62944e-07 0.00110687 -0.8475 -1.70676e-07 0.0011071 -0.84375
-1.78411e-07 0.00110733 -0.84 -1.86137e-07 0.00110756 -0.83625 -1.93964e-07 0.00110779 -0.8325 -2.01878e-07
0.00110804 -0.82875 -2.0984e-07 0.00110828 -0.825 -2.17805e-07 0.00110853 -0.82125 -2.25724e-07 0.00110877
-0.8175 -2.33785e-07 0.00110902 -0.81375 -2.41934e-07 0.00110928 -0.81 -2.50133e-07 0.00110954 -0.80625
-2.58336e-07 0.00110981 -0.8025 -2.6648e-07 0.00111007 -0.79875 -2.7478e-07 0.00111034 -0.795 -2.83169e-07
0.00111061 -0.79125 -2.91608e-07 0.00111089 -0.7875 -3.00051e-07 0.00111117 -0.78375 -3.0848e-07 0.00111145
-0.78 -3.17022e-07 0.00111174 -0.77625 -3.25655e-07 0.00111203 -0.7725 -3.34339e-07 0.00111233 -0.76875
-3.43028e-07 0.00111263 -0.765 -3.51701e-07 0.00111293 -0.76125 -3.605e-07 0.00111324 -0.7575 -3.69398e-07
0.00111356 -0.75375 -3.78354e-07 0.00111388 -0.75 -3.87315e-07 0.0011142 -0.74625 -3.96173e-07 0.00111452
-0.7425 -4.05249e-07 0.00111485 -0.73875 -4.1443e-07 0.00111519 -0.735 -4.2367e-07 0.00111554 -0.73125
-4.32916e-07 0.00111588 -0.7275 -4.42041e-07 0.00111622 -0.72375 -4.51402e-07 0.00111658 -0.72 -4.60865e-07
0.00111694 -0.71625 -4.70387e-07 0.00111731 -0.7125 -4.79916e-07 0.00111768 -0.70875 -4.893e-07 0.00111805
-0.705 -4.98951e-07 0.00111843 -0.70125 -5.08708e-07 0.00111883 -0.6975 -5.18528e-07 0.00111922 -0.69375
-5.28354e-07 0.00111962 -0.69 -5.38161e-07 0.00112002 -0.68625 -5.48117e-07 0.00112043 -0.6825 -5.58185e-07
0.00112085 -0.67875 -5.68318e-07 0.00112128 -0.675 -5.78459e-07 0.0011217 -0.67125 -5.8858e-07 0.00112213
-0.6675 -5.98872e-07 0.00112257 -0.66375 -6.09292e-07 0.00112302 -0.66 -6.1979e-07 0.00112348 -0.65625
-6.30295e-07 0.00112394 -0.6525 -6.40569e-07 0.0011244 -0.64875 -6.51239e-07 0.00112488 -0.645 -6.62046e-07
0.00112536 -0.64125 -6.72936e-07 0.00112586 -0.6375 -6.83836e-07 0.00112635 -0.63375 -6.94718e-07 0.00112685
-0.63 -7.0578e-07 0.00112736 -0.62625 -7.16975e-07 0.00112788 -0.6225 -7.28251e-07 0.00112841 -0.61875
-7.39537e-07 0.00112894 -0.615 -7.50807e-07 0.00112947 -0.61125 -7.62278e-07 0.00113002 -0.6075 -7.73897e-07
0.00113058 -0.60375 -7.85608e-07 0.00113115 -0.6 -7.97329e-07 0.00113173 -0.59625 -8.09038e-07 0.0011323
-0.5925 -8.20815e-07 0.00113287 -0.58875 -8.32604e-07 0.00113344 -0.585 -8.44494e-07 0.00113402 -0.58125
-8.56549e-07 0.00113462 -0.5775 -8.68327e-07 0.00113524 -0.57375 -8.80599e-07 0.00113585 -0.57 -8.92884e-07
0.00113647 -0.56625 -9.05271e-07 0.00113709 -0.5625 -9.17818e-07 0.00113774 -0.55875 -9.3001e-07 0.0011384
-0.555 -9.4278e-07 0.00113906 -0.55125 -9.55565e-07 0.00113972 -0.5475 -9.68449e-07 0.00114039 -0.54375
-9.81486e-07 0.00114108 -0.54 -9.94664e-07 0.00114179 -0.53625 -1.00793e-06 0.0011425 -0.5325 -1.02121e-06
0.00114321 -0.52875 -1.0346e-06 0.00114393 -0.525 -1.04814e-06 0.00114467 -0.52125 -1.06114e-06 0.00114542
-0.5175 -1.07493e-06 0.00114618 -0.51375 -1.08873e-06 0.00114694 -0.51 -1.10265e-06 0.00114771 -0.50625
-1.11674e-06 0.0011485 -0.5025 -1.13016e-06 0.00114931 -0.49875 -1.14452e-06 0.00115012 -0.495 -1.15889e-06
0.00115093 -0.49125 -1.17338e-06 0.00115175 -0.4875 -1.18804e-06 0.0011526 -0.48375 -1.20288e-06 0.00115346
-0.48 -1.21783e-06 0.00115432 -0.47625 -1.23281e-06 0.00115518 -0.4725 -1.2479e-06 0.00115605 -0.46875
-1.26317e-06 0.00115694 -0.465 -1.27863e-06 0.00115785 -0.46125 -1.29422e-06 0.00115876 -0.4575 -1.30983e-06
0.00115967 -0.45375 -1.32558e-06 0.00116059 -0.45 -1.34151e-06 0.00116153 -0.44625 -1.35766e-06 0.00116248
-0.4425 -1.37396e-06 0.00116344 -0.43875 -1.39029e-06 0.00116439 -0.435 -1.40676e-06 0.00116536 -0.43125
-1.42344e-06 0.00116633 -0.4275 -1.43873e-06 0.00116732 -0.42375 -1.45583e-06 0.00116831 -0.42 -1.47296e-06
0.0011693 -0.41625 -1.49024e-06 0.0011703 -0.4125 -1.50772e-06 0.0011713 -0.40875 -1.52351e-06 0.00117231
-0.405 -1.54145e-06 0.00117332 -0.40125 -1.55942e-06 0.00117433 -0.3975 -1.57754e-06 0.00117533 -0.39375
-1.59583e-06 0.00117634 -0.39 -1.61444e-06 0.00117735 -0.38625 -1.63323e-06 0.00117835 -0.3825 -1.65207e-06
0.00117936 -0.37875 -1.67103e-06 0.00118036 -0.375 -1.69017e-06 0.00118134 -0.37125 -1.70963e-06 0.0011823
-0.3675 -1.72931e-06 0.00118327 -0.36375 -1.74904e-06 0.00118424 -0.36 -1.76891e-06 0.00118518 -0.35625
-1.78897e-06 0.00118608 -0.3525 -1.80601e-06 0.00118695 -0.34875 -1.8267e-06 0.00118782 -0.345 -1.84743e-06
0.00118869 -0.34125 -1.86831e-06 0.00118951 -0.3375 -1.88937e-06 0.00119027 -0.33375 -1.91088e-06 0.00119096
-0.33 -1.93265e-06 0.00119165 -0.32625 -1.95448e-06 0.00119235 -0.3225 -1.97643e-06 0.00119297 -0.31875
-1.99851e-06 0.00119349 -0.315 -2.02107e-06 0.0011939 -0.31125 -2.04392e-06 0.00119431 -0.3075 -2.06685e-06
0.00119472 -0.30375 -2.08986e-06 0.00119502 -0.3 -2.11299e-06 0.00119516 -0.29625 -2.13073e-06 0.00119515
-0.2925 -2.15473e-06 0.0011949 -0.28875 -2.1788e-06 0.00119441 -0.285 -2.20295e-06 0.00119375 -0.28125
-2.22716e-06 0.0011931 -0.2775 -2.24486e-06 0.00119244 -0.27375 -2.26994e-06 0.00119145 -0.27 -2.29503e-06
0.00119013 -0.26625 -2.32015e-06 0.00118856 -0.2625 -2.34531e-06 0.00118699 -0.25875 -2.36269e-06 0.00118543
-0.255 -2.38876e-06 0.00118339 -0.25125 -2.41472e-06 0.00118086 -0.2475 -2.44061e-06 0.001178 -0.24375
-2.46656e-06 0.00117515 -0.24 -2.4934e-06 0.0011723 -0.23625 -2.5203e-06 0.00116883 -0.2325 -2.54696e-06
0.00116472 -0.22875 -2.57346e-06 0.00116019 -0.225 -2.6e-06 0.00115569 -0.22125 -2.61548e-06 0.00115121
-0.2175 -2.64263e-06 0.00114587 -0.21375 -2.6692e-06 0.00113966 -0.21 -2.69544e-06 0.00113295 -0.20625
-2.72169e-06 0.00112629 -0.2025 -2.73509e-06 0.00111967 -0.19875 -2.7624e-06 0.00111185 -0.195 -2.78884e-06
0.00110282 -0.19125 -2.81483e-06 0.00109321 -0.1875 -2.84083e-06 0.0010837 -0.18375 -2.86776e-06 0.00107428
-0.18 -2.89364e-06 0.00106333 -0.17625 -2.91825e-06 0.00105088 -0.1725 -2.94234e-06 0.00103792 -0.16875
-2.96644e-06 0.00102514 -0.165 -2.99192e-06 0.00101253 -0.16125 -3.01582e-06 0.000998141 -0.1575 -3.03804e-06
0.000982011 -0.15375 -3.05985e-06 0.000965644 -0.15 -3.0817e-06 0.00094958 -0.14625 -3.1051e-06 0.000933809
-0.1425 -3.12542e-06 0.000916042 -0.13875 -3.14275e-06 0.00089634 -0.135 -3.15996e-06 0.000876901 -0.13125
-3.17732e-06 0.000857922 -0.1275 -3.17421e-06 0.000839383 -0.12375 -3.19015e-06 0.000818782 -0.12 -3.20388e-06
0.000796524 -0.11625 -3.21788e-06 0.000774909 -0.1125 -3.23216e-06 0.000753915 -0.10875 -3.22507e-06 0.000733518
-0.105 -3.23542e-06 0.0007111 -0.10125 -3.24287e-06 0.000687722 -0.0975 -3.25084e-06 0.000665137 -0.0937499
-3.25932e-06 0.000643318 -0.0899999 -3.2693e-06 0.000622228 -0.0862499 -3.27732e-06 0.000599608 -0.0824999 -3.28517e-06
0.000576926 -0.0787499 -3.29361e-06 0.000555107 -0.0749999 -3.30262e-06 0.000534117 -0.0712499 -3.31286e-06 0.000513915
-0.0674999 -3.32588e-06 0.000493634 -0.0637499 -3.33983e-06 0.000474001 -0.0599999 -3.35418e-06 0.000455137 -0.0562499
-3.36894e-06 0.000437011 -0.0524999 -3.36202e-06 0.000419587 -0.0487498 -3.37501e-06 0.000404509 -0.0449998 -3.38837e-06
0.000389956 -0.0412498 -3.4021e-06 0.000375911 -0.0374998 -3.41619e-06 0.000362356 -0.0337498 -3.4307e-06 0.00034927
-0.0299998 -3.44247e-06 0.000340643 -0.0262498 -3.45453e-06 0.00033222 -0.0224998 -3.46687e-06 0.000323998 -0.0187499
-3.47949e-06 0.000315972 -0.0149999 -3.49196e-06 0.000308136 -0.0112499 -3.50833e-06 0.000304711 -0.0074999 -3.52483e-06
0.000301322 -0.00374991 -3.54145e-06 0.00029797 6.11913e-08 -3.55818e-06 0.000294654 0.00375005 -3.55606e-06 0.000291374
0.00750005 -3.57022e-06 0.000288135 0.01125 -3.58447e-06 0.00028493 0.015 -3.59882e-06 0.00028176 0.01875
-3.61327e-06 0.000278624 0.0225 -3.61875e-06 0.000277588 0.02625 -3.63885e-06 0.000276559 0.03 -3.65901e-06
0.000275533 0.03375 -3.67924e-06 0.000274511 0.0375 -3.69953e-06 0.000273492 0.04125 -3.70941e-06 0.000273005
0.045 -3.73207e-06 0.00027252 0.04875 -3.75479e-06 0.000272035 0.0525 -3.77758e-06 0.000271552 0.05625
-3.80043e-06 0.00027107 0.06 -3.82831e-06 0.000270872 0.06375 -3.85469e-06 0.000270675 0.0675 -3.88114e-06
0.000270479 0.07125 -3.90765e-06 0.000270282 0.075 -3.93424e-06 0.000270086 0.07875 -3.95518e-06 0.000270039
0.0825 -3.98646e-06 0.000269993 0.08625 -4.01783e-06 0.000269947 0.09 -4.04927e-06 0.000269901 0.09375
-4.08079e-06 0.000269855 0.0975 -4.10844e-06 0.00026986 0.10125 -4.14625e-06 0.000269866 0.105 -4.18414e-06
0.000269872 0.10875 -4.22213e-06 0.000269878 0.1125 -4.26022e-06 0.000269884 0.11625 -4.31109e-06 0.000269904
[...]
POINT_DATA 19461
FIELD attributes 3
age 1 19461 float
0 7.30158e-05 0.000146035 0.000219059 0.000292085 0.000365116 0.000553998 0.00074288 0.000931762 0.00112066 0.00130959
0.00149855 0.00168752 0.00187648 0.00206546 0.00225448 0.00244148 0.00262847 0.00281547 0.00300248 0.00318327
0.00318658 0.00318989 0.00319319 0.0031965 0.00319981 0.00338896 0.0035781 0.00376725 0.00395641 0.00414562
0.00433486 0.00452411 0.00471335 0.00490262 0.00509193 0.00528128 0.00547068 0.00566012 0.00584959 0.00603905
0.00622852 0.00641804 0.0066076 0.00679719 0.00698678 0.00717637 0.00736602 0.00755571 0.00774543 0.00793516
0.00812488 0.00831466 0.0085045 0.00869436 0.00888423 0.00907409 0.00926402 0.00945401 0.00964402 0.00983404
0.0100241 0.0102141 0.0104043 0.0105945 0.0107847 0.0109749 0.0111651 0.0113554 0.0115458 0.0117362
0.0119265 0.012117 0.0123075 0.012498 0.0126886 0.0128791 0.0130698 0.0132605 0.0134513 0.013642
0.0138328 0.0140237 0.0142146 0.0144056 0.0145966 0.0147876 0.0149787 0.0151698 0.0153611 0.0155523
0.0157436 0.0159349 0.0161264 0.0163179 0.0165094 0.0167009 0.0168925 0.0170842 0.017276 0.0174678
0.0176596 0.0178516 0.0180436 0.0182357 0.0184278 0.0186199 0.0188122 0.0190046 0.019197 0.0193895
0.019582 0.0197746 0.0199674 0.0201602 0.020353 0.0205459 0.0207387 0.0209316 0.0211245 0.0213176
0.0215109 0.0217042 0.0218975 0.0220908 0.0222844 0.0224781 0.0226718 0.0228656 0.0230594 0.0232534
0.0234477 0.0236419 0.0238361 0.0240305 0.0242251 0.0244199 0.0246146 0.0248094 0.0250044 0.0251995
0.0253949 0.0255903 0.0257857 0.0259813 0.0261771 0.0263732 0.0265693 0.0267653 0.0269616 0.0271581
0.027355 0.0275518 0.0277486 0.0279456 0.028143 0.0283406 0.0285383 0.0287359 0.0289338 0.029132
0.0293306 0.0295291 0.0297277 0.0299265 0.0301257 0.0303252 0.0305248 0.0307244 0.0309242 0.0311245
0.0313252 0.0315258 0.0317265 0.0319275 0.032129 0.0323309 0.0325327 0.0327347 0.0329369 0.0331396
0.0333428 0.0335461 0.0337493 0.0339529 0.034157 0.0343617 0.0345664 0.034771 0.0349761 0.0351817
0.0353879 0.0355941 0.0358003 0.0360069 0.0362141 0.0364219 0.0366303 0.0368393 0.0370487 0.0372581
0.0374675 0.0376775 0.0378881 0.0380991 0.03831 0.0385209 0.0387324 0.0389445 0.0391568 0.0393692
0.0395814 0.0397941 0.0400072 0.0402206 0.0404339 0.0406471 0.0408606 0.0410744 0.0412882 0.0415019
0.0417154 0.041929 0.0421425 0.0423559 0.0425691 0.042782 0.0429945 0.0432066 0.0434182 0.0436296
0.0438406 0.0440507 0.0442599 0.0444685 0.0446768 0.0448846 0.045091 0.0452959 0.0455002 0.0457042
0.0459077 0.0461091 0.0463086 0.0465077 0.0467065 0.046905 0.0471006 0.0472945 0.0474881 0.0476815
0.0478747 0.0480645 0.048253 0.0484415 0.0486299 0.0488183 0.049003 0.0491872 0.0493716 0.049556
0.0497406 0.0499218 0.0501033 0.0502849 0.0504668 0.0506488 0.0508288 0.0510089 0.0511892 0.0513697
0.0515503 0.0517303 0.0519103 0.0520903 0.0522705 0.0524508 0.0526311 0.0528115 0.052992 0.0531725
0.0533532 0.0535338 0.0537145 0.0538953 0.054076 0.0542571 0.0544381 0.0546192 0.0548003 0.0549814
0.0551628 0.0553443 0.0555257 0.0557071 0.0558886 0.0560703 0.0562521 0.0564338 0.0566155 0.0567973
0.0569793 0.0571614 0.0573434 0.0575255 0.0577075 0.0578898 0.0580721 0.0582545 0.0584368 0.0586191
0.0588017 0.0589844 0.059167 0.0593496 0.0595322 0.0597151 0.059898 0.0600809 0.0602638 0.0604467
0.06063 0.0608132 0.0609964 0.0611796 0.0613628 0.0615463 0.0617299 0.0619134 0.0620969 0.0622804
0.0624642 0.062648 0.0628318 0.0630156 0.0631994 0.0633835 0.0635676 0.0637517 0.0639358 0.0641198
0.0643042 0.0644885 0.0646729 0.0648572 0.0650415 0.0652261 0.0654107 0.0655952 0.0657798 0.0659644
0.0661492 0.066334 0.0665187 0.0667035 0.0668883 0.0670733 0.0672584 0.0674436 0.0676287 0.0678139
0.0679991 0.0681844 0.0683697 0.068555 0.0687403 0.0689256 0.0691111 0.0692965 0.069482 0.0696674
0.0698529 0.0700384 0.070224 0.0704096 0.0705952 0.0707807 0.0709664 0.0711521 0.0713378 0.0715235
0.0717091 0.0718949 0.0720807 0.0722664 0.0724522 0.072638 0.0728238 0.0730096 0.0731955 0.0733813
0.0735671 0.073753 0.0739389 0.0741247 0.0743106 0.0744965 0.0746824 0.0748683 0.0750542 0.0752401
0.075426 0.0756119 0.0757978 0.0759837 0.0761696 0.0763554 0.0765413 0.0767272 0.0769131 0.0770989
0.0772848 0.0774706 0.0776565 0.0778423 0.0780281 0.078214 0.0783998 0.0785856 0.0787713 0.0789571
0.0791429 0.0793287 0.0795144 0.0797002 0.0798859 0.0800717 0.0802574 0.0804431 0.0806288 0.0808146
0.0810003 0.0811861 0.0813718 0.0815575 0.0817433 0.081929 0.0821148 0.0823005 0.0824862 0.082672
0.0828578 0.0830435 0.0832293 0.0834151 0.0836009 0.0837867 0.0839726 0.0841584 0.0843442 0.08453
0.084716 0.0849019 0.0850878 0.0852737 0.0854596 0.0856455 0.0858315 0.0860175 0.0862034 0.0863894
0.0865754 0.0867615 0.0869475 0.0871335 0.0873196 0.0875057 0.0876918 0.0878779 0.0880639 0.08825
0.0884362 0.0886223 0.0888085 0.0889946 0.0891808 0.089367 0.0895531 0.0897393 0.0899255 0.0901117
0.090298 0.0904842 0.0906704 0.0908567 0.0910429 0.0912292 0.0914154 0.0916017 0.091788 0.0919743
0.0921606 0.0923469 0.0925332 0.0927195 0.0929058 0.0930922 0.0932785 0.0934649 0.0936512 0.0938376
0.094024 0.0942104 0.0943968 0.0945831 0.0947695 0.094956 0.0951424 0.0953288 0.0955153 0.0957017
0.0958882 0.0960747 0.0962612 0.0964476 0.0966341 0.0968207 0.0970073 0.0971939 0.0973804 0.097567
0.0977536 0.0979403 0.098127 0.0983136 0.0985003 0.098687 0.0988737 0.0990605 0.0992472 0.099434
0.0996207 0.0998075 0.0999943 0.100181 0.100368 0.100555 0.100742 0.100928 0.101115 0.101302
0.101489 0.101676 0.101863 0.10205 0.102237 0.102424 0.102611 0.102798 0.102985 0.103172
0.103359 0.103547 0.103734 0.103921 0.104109 0.104296 0.104484 0.104671 0.104859 0.105047
0.105183 0.105319 0.105455 0.105591 0.105713 0.105768 0.105823 0.105878 0.105932 0.105987
0.106175 0.106364 0.106552 0.106741 0.10693 0.107118 0.107307 0.107496 0.107685 0.107874
0.108063 0.108253 0.108442 0.108631 0.108821 0.10901 0.1092 0.10939 0.10958 0.109769
0.109959 0.110149 0.110339 0.110529 0.110719 0.110909 0.1111 0.11129 0.11148 0.11167
0.11186 0.112051 0.112241 0.112431 0.112621 0.112812 0.113002 0.113192 0.113383 0.113573
0.113763 0.113954 0.114144 0.114335 0.114525 0.114716 0.114906 0.115097 0.115287 0.115477
0.115668 0.115858 0.116049 0.116239 0.11643 0.11662 0.116811 0.117001 0.117192 0.117382
0.117573 0.117763 0.117954 0.118144 0.118335 0.118525 0.118715 0.118906 0.119096 0.119287
0.119477 0.119668 0.119858 0.120048 0.120239 0.120429 0.120619 0.12081 0.121 0.121191
0.121381 0.121571 0.121762 0.121952 0.122142 0.122333 0.122523 0.122713 0.122904 0.123094
0.123284 0.123475 0.123665 0.123855 0.124045 0.124236 0.124426 0.124616 0.124806 0.124997
0.125187 0.125377 0.125567 0.125757 0.125948 0.126138 0.126328 0.126518 0.126708 0.126898
0.127089 0.127279 0.127469 0.127659 0.127849 0.128039 0.128229 0.12842 0.12861 0.1288
0.12899 0.12918 0.12937 0.12956 0.12975 0.12994 0.13013 0.13032 0.13051 0.1307
0.13089 0.13108 0.13127 0.13146 0.13165 0.13184 0.13203 0.13222 0.13241 0.1326
0.13279 0.132979 0.133169 0.133359 0.133549 0.133739 0.133929 0.134119 0.134308 0.134498
0.134688 0.134878 0.135068 0.135257 0.135447 0.135637 0.135826 0.136016 0.136206 0.136396
0.136585 0.136775 0.136965 0.137154 0.137344 0.137533 0.137723 0.137913 0.138102 0.138292
0.138481 0.138671 0.13886 0.13905 0.13924 0.139429 0.139618 0.139808 0.139997 0.140187
0.140376 0.140565 0.140755 0.140944 0.141134 0.141323 0.141512 0.141702 0.141891 0.142081
0.142269 0.142459 0.142648 0.142838 0.143027 0.143216 0.143405 0.143595 0.143784 0.143973
0.144162 0.144351 0.14454 0.14473 0.144919 0.145108 0.145297 0.145486 0.145675 0.145865
0.146053 0.146242 0.146432 0.146621 0.14681 0.146998 0.147188 0.147377 0.147566 0.147755
0.147943 0.148133 0.148322 0.148511 0.1487 0.148888 0.149077 0.149266 0.149455 0.149644
0.149833 0.150021 0.15021 0.150399 0.150588 0.150776 0.150965 0.151154 0.151343 0.151532
0.151908 0.152284 0.152661 0.153037 0.153414 0.154165 0.154916 0.155667 0.156418 0.157169
0.158669 0.16017 0.161671 0.163171 0.164672 0.166172 0.167672 0.169173 0.170673 0.172173
0.175173 0.178174 0.181174 0.184174 0.187174 0.193174 0.199174 0.205174 0.211175 0.217175
0.223175 0.229175 0.235175 0.241175 0.247175 0.253175 0.259175 0.265175 0.271175 0.277175
0.283175 0.289175 0.295175 0.301175 0.307175 0.313175 0.319175 0.325175 0.331176 0.337176
0.343176 0.349176 0.355176 0.361176 0.367176 0.373176 0.379176 0.385176 0.391176 0.397176
0.403176 0.40323 0 7.36898e-05 0.000147384 0.000221081 0.000294783 0.000368488 0.000559119 0.000749783
0.000940481 0.00113121 0.00132198 0.00133891 0.00135585 0.00137278 0.00138972 0.0014065 0.00158041 0.00175435
0.00192832 0.00210232 0.00227635 0.00246732 0.00265834 0.00284939 0.00304048 0.00323161 0.00342278 0.00361398
0.00380523 0.00399652 0.00418785 0.00437922 0.00457063 0.00476208 0.00495358 0.00514513 0.00533671 0.00552835
0.00572003 0.00591175 0.00610353 0.00629535 0.00648722 0.00667914 0.00687111 0.00706313 0.0072552 0.00744732
0.0076395 0.00783173 0.00802402 0.00821635 0.00840875 0.00860121 0.00879372 0.00898629 0.00917892 0.00937161
0.00956436 0.00975718 0.00995006 0.010143 0.010336 0.0105291 0.0107222 0.0109154 0.0111087 0.0113021
0.0114955 0.011689 0.0118825 0.0120762 0.0122699 0.0124637 0.0126576 0.0128515 0.0130455 0.0132397
0.0134339 0.0136281 0.0138225 0.014017 0.0142115 0.0144062 0.0146009 0.0147957 0.0149906 0.0151857
0.0153808 0.015576 0.0157713 0.0159667 0.0161622 0.0163579 0.0165536 0.0167495 0.0169454 0.0171415
0.0173377 0.017534 0.0177305 0.017927 0.0181237 0.0183205 0.0185174 0.0187145 0.0189117 0.019109
0.0193065 0.0195041 0.0197019 0.0198998 0.0200979 0.0202961 0.0204944 0.020693 0.0208917 0.0210905
0.0212895 0.0214887 0.0216881 0.0218876 0.0220873 0.0222872 0.0224873 0.0226876 0.022888 0.0230887
0.0232895 0.0234906 0.0236919 0.0238934 0.0240951 0.024297 0.0244992 0.0247016 0.0249042 0.0251071
0.0253102 0.0255136 0.0257172 0.0259211 0.0261253 0.0263297 0.0265344 0.0267394 0.0269447 0.0271503
0.0273562 0.0275624 0.0277689 0.0279757 0.0281829 0.0283904 0.0285982 0.0288064 0.029015 0.0292239
0.0294332 0.0296429 0.029853 0.0300635 0.0302744 0.0304857 0.0306975 0.0309097 0.0311223 0.0313354
0.031549 0.0317631 0.0319777 0.0321927 0.0324083 0.0326244 0.0328411 0.0330584 0.0332761 0.0334945
0.0337135 0.0339331 0.0341533 0.0343742 0.0345957 0.0348179 0.0350408 0.0352644 0.0354887 0.0357138
0.0359396 0.0361662 0.0363936 0.0366218 0.0368509 0.0370809 0.0373117 0.0375434 0.037776 0.0380095
0.038244 0.0384795 0.038716 0.0389536 0.0391922 0.0394319 0.0396727 0.0399147 0.0401577 0.0404018
0.0406471 0.0408937 0.0411415 0.0413905 0.0416409 0.0418925 0.0421454 0.0423998 0.0426552 0.0429119
0.0431697 0.0434288 0.0436897 0.0439517 0.0442148 0.0444792 0.0447446 0.0450119 0.0452797 0.0455481
0.045817 0.0460864 0.0463583 0.0464858 0.0466132 0.0467406 0.0468678 0.0469478 0.0471015 0.047255
0.0474084 0.0475616 0.0477158 0.0479866 0.0482557 0.0485229 0.0487881 0.0490566 0.0492027 0.0493476
0.0494913 0.0496339 0.049744 0.0498644 0.0499841 0.050103 0.0502212 0.0503395 0.0505869 0.0508292
0.0510665 0.0512991 0.0515282 0.0515436 0.0515589 0.0515743 0.0515896 0.0516049 0.0518116 0.0520137
0.0522114 0.0524049 0.0525923 0.0527036 0.0528131 0.0529211 0.0530276 0.0531614 0.0532358 0.0533096
0.0533828 0.0534553 0.0535267 0.0537011 0.0538718 0.0540391 0.0542031 0.0543607 0.054499 0.0546358
0.0547711 0.0549049 0.0551268 0.0551413 0.0551558 0.0551702 0.0551847 0.0552011 0.0553328 0.055464
0.0555945 0.0557246 0.0558533 0.0559963 0.0561393 0.0562825 0.0564258 0.0565691 0.0567124 0.056856
0.057 0.0571443 0.0572889 0.057434 0.0575794 0.0577252 0.0578713 0.0580178 0.0581646 0.0583117
0.0584592 0.0586069 0.058755 0.0589034 0.0590522 0.0592012 0.0593506 0.0595002 0.0596502 0.0598004
0.0599509 0.0601018 0.0602529 0.0604044 0.0605561 0.0607082 0.0608606 0.0610132 0.0611662 0.0613195
0.0614732 0.0616271 0.0617814 0.061936 0.062091 0.0622463 0.0624019 0.0625579 0.0627142 0.0628709
0.0630279 0.0631852 0.0633429 0.063501 0.0636594 0.0638181 0.0639772 0.0641367 0.0642965 0.0644566
0.064617 0.0647778 0.0649389 0.0651003 0.0652621 0.0654242 0.0655866 0.0657493 0.0659124 0.0660757
0.0662393 0.0664033 0.0665675 0.066732 0.0668968 0.0670619 0.0672273 0.0673929 0.0675588 0.067725
0.0678914 0.0680581 0.068225 0.0683922 0.0685597 0.0687273 0.0688952 0.0690634 0.0692317 0.0694003
0.0695691 0.0697381 0.0699073 0.0700767 0.0702464 0.0704162 0.0705862 0.0707564 0.0709268 0.0710974
0.0712681 0.0714391 0.0716101 0.0717814 0.0719528 0.0721244 0.0722961 0.072468 0.07264 0.0728122
0.0729845 0.0731569 0.0733294 0.0735021 0.0736748 0.0738477 0.0740207 0.0741938 0.0743669 0.0745402
0.0747135 0.0748869 0.0750603 0.0752339 0.0754075 0.0755811 0.0757548 0.0759285 0.0761023 0.0762761
0.0764498 0.0766236 0.0767974 0.0769712 0.077145 0.0773187 0.0774925 0.0776662 0.0778399 0.0780135
0.0781871 0.0783607 0.0785342 0.0787077 0.0788811 0.0790545 0.0792278 0.0794011 0.0795743 0.0797475
0.0799206 0.0800936 0.0802666 0.0804396 0.0806126 0.0807855 0.0809584 0.0811313 0.0813041 0.081477
0.0816498 0.0818227 0.0819956 0.0821686 0.0823416 0.0825146 0.0826877 0.0828609 0.0830341 0.0832074
0.0833807 0.0835542 0.0837277 0.0839013 0.0840751 0.0842489 0.0844229 0.0845969 0.0847711 0.0849453
0.0851196 0.0852941 0.0854686 0.0856434 0.0858181 0.0859931 0.0861681 0.0863432 0.0865185 0.0866938
0.0868692 0.0870447 0.0872203 0.087396 0.0875719 0.0877478 0.0879238 0.0880999 0.0882761 0.0884524
0.0886287 0.0888052 0.0889817 0.0891583 0.089335 0.0895118 0.0896887 0.0898656 0.0900426 0.0902197
0.0903969 0.0905741 0.0907514 0.0909288 0.0911063 0.0912838 0.0914614 0.0916391 0.0918169 0.0919948
0.0921727 0.0923506 0.0925287 0.0927069 0.0928851 0.0930635 0.0932419 0.0934204 0.093599 0.0937776
0.0939563 0.0941351 0.094314 0.094493 0.0946721 0.0948513 0.0950306 0.0952099 0.0953894 0.0955689
0.0957486 0.0959283 0.0961081 0.0962881 0.0964682 0.0966484 0.0968287 0.0970091 0.0971897 0.0973704
0.0975513 0.0977323 0.0979135 0.0980954 0.0982774 0.0984596 0.098642 0.0988246 0.0990065 0.0991884
0.0993704 0.0995525 0.0997346 0.0999172 0.1001 0.100282 0.100465 0.100648 0.100831 0.101014
0.101197 0.10138 0.101564 0.101748 0.101932 0.102117 0.102301 0.102487 0.102672 0.102858
0.103045 0.103232 0.10342 0.103429 0.103438 0.103447 0.103456 0.103465 0.103644 0.103825
0.104006 0.104188 0.104371 0.104563 0.104757 0.104951 0.105146 0.105342 0.10554 0.105739
0.10594 0.106141 0.106344 0.106548 0.106754 0.10696 0.107168 0.107377 0.107588 0.107801
0.108016 0.108232 0.10845 0.108669 0.10889 0.109112 0.109336 0.109561 0.109789 0.110018
0.110249 0.110482 0.110716 0.110952 0.11119 0.111429 0.111669 0.111911 0.112155 0.112401
0.112648 0.112896 0.113146 0.113397 0.11365 0.113904 0.114159 0.114415 0.114673 0.114932
0.115192 0.115453 0.115715 0.115979 0.116243 0.116508 0.116774 0.117041 0.117309 0.117578
0.117847 0.118117 0.118387 0.118658 0.11893 0.119203 0.119476 0.119749 0.120023 0.120297
0.120571 0.120846 0.121121 0.121396 0.121672 0.121948 0.122224 0.1225 0.122776 0.123053
0.123329 0.123606 0.123883 0.123996 0.124109 0.124222 0.124336 0.124446 0.12461 0.124774
0.124938 0.125102 0.125265 0.125542 0.125818 0.126094 0.12637 0.126646 0.126922 0.127197
0.127473 0.127748 0.128023 0.128297 0.128571 0.128846 0.12912 0.129393 0.129666 0.129939
0.130212 0.130485 0.130757 0.131028 0.1313 0.131572 0.131844 0.132115 0.132385 0.132655
0.132925 0.133195 0.133465 0.133733 0.134003 0.134272 0.134541 0.13481 0.135077 0.135345
0.135613 0.13588 0.136148 0.136414 0.136681 0.136948 0.137215 0.137482 0.137747 0.138013
0.138279 0.138545 0.13881 0.139074 0.139339 0.139604 0.139868 0.140133 0.140396 0.140659
0.140922 0.141185 0.141448 0.141568 0.141688 0.141808 0.141928 0.142052 0.142193 0.142334
0.142475 0.142615 0.142756 0.143017 0.143277 0.143538 0.143798 0.144058 0.144317 0.144577
0.144836 0.145095 0.145354 0.145611 0.14587 0.146128 0.146386 0.146643 0.146899 0.147156
0.147413 0.14767 0.147926 0.148179 0.148435 0.148691 0.148946 0.1492 0.149452 0.149705
0.14996 0.150213 0.150466 0.150716 0.150968 0.151221 0.151473 0.151724 0.151972 0.152222
0.152474 0.152724 0.152974 0.15322 0.153469 0.153719 0.153969 0.154216 0.154462 0.154709
0.154957 0.155206 0.155452 0.155696 0.155942 0.156189 0.156436 0.156681 0.156923 0.157168
0.157413 0.157658 0.157902 0.158143 0.158386 0.15863 0.158873 0.159115 0.159356 0.159598
0.15984 0.160081 0.160323 0.160562 0.160802 0.161043 0.161283 0.161523 0.161761 0.162
0.162239 0.162478 0.162717 0.162954 0.163192 0.163429 0.163667 0.163904 0.16414 0.164377
0.164613 0.164849 0.165085 0.16532 0.165555 0.16579 0.166025 0.166259 0.166296 0.166332
0.166369 0.166405 0.166441 0.166872 0.167301 0.16773 0.168154 0.168553 0.169366 0.170183
0.170998 0.171809 0.172618 0.174154 0.175696 0.177233 0.178766 0.180297 0.181808 0.183324
0.184839 0.186352 0.187865 0.190876 0.19389 0.196902 0.199913 0.202923 0.208929 0.214936
0.220943 0.226949 0.232955 0.238956 0.24496 0.250963 0.256967 0.262971 0.268971 0.274974
0.280978 0.28698 0.292983 0.298984 0.304986 0.310989 0.316991 0.322994 0.328994 0.334996
0.340998 0.347 0.353002 0.359003 0.365005 0.371006 0.377008 0.38301 0.38901 0.395012
0.401013 0.407014 0.413016 0.419016 0.422473 0 7.36657e-05 0.000147336 0.000221011 0.000294691
0.000368375 0.00055895 0.000749559 0.0009402 0.00113087 0.00132158 0.00133737 0.00135316 0.00136895 0.00138474
0.00140038 0.00157538 0.0017504 0.00192545 0.00210053 0.00227564 0.00246655 0.0026575 0.00284849 0.00303951
0.00323057 0.00342167 0.00361281 0.00380399 0.0039952 0.00418646 0.00437775 0.00456909 0.00476047 0.0049519
0.00514336 0.00533487 0.00552642 0.00571802 0.00590967 0.00610135 0.00629309 0.00648487 0.0066767 0.00686859
0.00706052 0.00725249 0.00744452 0.00763661 0.00782874 0.00802093 0.00821317 0.00840546 0.00859782 0.00879022
0.00898269 0.00917521 0.00936779 0.00956043 0.00975313 0.0099459 0.0101387 0.0103316 0.0105246 0.0107176
0.0109107 0.0111038 0.011297 0.0114903 0.0116837 0.0118771 0.0120706 0.0122642 0.0124578 0.0126516
0.0128454 0.0130393 0.0132332 0.0134273 0.0136214 0.0138156 0.0140099 0.0142043 0.0143987 0.0145933
0.014788 0.0149827 0.0151775 0.0153725 0.0155675 0.0157626 0.0159578 0.0161532 0.0163486 0.0165441
0.0167398 0.0169355 0.0171314 0.0173274 0.0175235 0.0177197 0.017916 0.0181124 0.018309 0.0185057
0.0187025 0.0188995 0.0190965 0.0192938 0.0194911 0.0196886 0.0198863 0.020084 0.020282 0.02048
0.0206783 0.0208767 0.0210752 0.0212739 0.0214728 0.0216718 0.021871 0.0220704 0.02227 0.0224697
0.0226697 0.0228698 0.0230701 0.0232706 0.0234713 0.0236722 0.0238734 0.0240747 0.0242763 0.024478
0.02468 0.0248823 0.0250847 0.0252875 0.0254904 0.0256936 0.0258971 0.0261008 0.0263048 0.0265091
0.0267137 0.0269185 0.0271237 0.0273291 0.0275349 0.0277409 0.0279473 0.028154 0.0283611 0.0285685
0.0287763 0.0289844 0.0291929 0.0294018 0.029611 0.0298207 0.029856 0.0298912 0.0299265 0.0299618
0.0299964 0.0301717 0.0303472 0.0305231 0.0306993 0.0308758 0.031088 0.0313008 0.0315141 0.0317279
0.0319422 0.032157 0.0323724 0.0325884 0.0328049 0.0330221 0.0332398 0.0334582 0.0336773 0.033897
0.0341174 0.0343385 0.0345604 0.034783 0.0350065 0.0352307 0.0354558 0.0356817 0.0359086 0.0361363
0.036365 0.0365947 0.0368255 0.0370574 0.0372904 0.0375245 0.0377597 0.0379962 0.038234 0.0384731
0.0387136 0.0389555 0.039199 0.0394442 0.039691 0.0399394 0.0401895 0.0404414 0.0406954 0.0409514
0.0412095 0.0414696 0.0417322 0.0419974 0.0422652 0.0425356 0.0428093 0.0430859 0.0433658 0.0436489
0.0439358 0.0442255 0.0445193 0.0448173 0.0451195 0.0454272 0.0457371 0.0460516 0.0463706 0.0466943
0.0470282 0.0471864 0.0473459 0.0475065 0.047668 0.0477455 0.0479506 0.048157 0.0483646 0.0485735
0.0487907 0.0490917 0.0493948 0.0496995 0.0500033 0.0500939 0.0502129 0.0503316 0.05045 0.050568
0.0506906 0.0508877 0.0510827 0.0512755 0.051466 0.0515898 0.0517939 0.0519945 0.0521915 0.052385
0.05259 0.0526166 0.0526432 0.0526697 0.0526962 0.0527217 0.0529224 0.0531173 0.0533073 0.0534923
0.053661 0.0537871 0.0539112 0.054033 0.0541517 0.0542703 0.0543063 0.0543421 0.0543778 0.0544134