# Force coefficients
# liftDir     : (0.000000e+00 0.000000e+00 1.000000e+00)
# dragDir     : (1.000000e+00 0.000000e+00 0.000000e+00)
# pitchAxis   : (0.000000e+00 1.000000e+00 0.000000e+00)
# magUInf     : 2.000000e+01
# lRef        : 1.044000e+00
# Aref        : 7.500000e-01
# CofR        : (7.200000e-01 0.000000e+00 0.000000e+00)
# Time        	Cm            	Cd            	Cl            	Cl(f)         	Cl(r)         
3             	3.706900e-03	2.118579e-02	1.470927e-04	3.780447e-03	-3.633354e-03
4             	2.844967e+00	1.190193e+01	2.614462e+00	4.152198e+00	-1.537736e+00
5             	3.086645e+00	1.274476e+01	2.999676e+00	4.586483e+00	-1.586807e+00
6             	1.526345e+00	6.234352e+00	1.562257e+00	2.307474e+00	-7.452170e-01
