# vtk DataFile Version 2.0
tracks
ASCII
DATASET POLYDATA
POINTS 19458 float
-1.001 1e-07 0.0011 -0.99955 9.65838e-08 0.00110002 -0.9981 9.31506e-08 0.00110004 -0.99665 8.97003e-08
0.00110007 -0.9952 8.62329e-08 0.0011001 -0.99375 8.27484e-08 0.00110014 -0.99 7.36765e-08 0.00110024
-0.98625 6.46173e-08 0.00110034 -0.9825 5.55557e-08 0.00110044 -0.97875 4.64087e-08 0.00110054 -0.975
3.7097e-08 0.00110067 -0.972066 2.96776e-08 0.00110079 -0.969132 2.22617e-08 0.00110091 -0.966199 1.48439e-08
0.00110103 -0.963265 7.42427e-09 0.00110115 -0.960364 1.66421e-17 0.00110127 -0.959541 -2.13559e-09 0.00110131
-0.958718 -4.27966e-09 0.00110134 -0.957896 -6.43219e-09 0.00110138 -0.957073 -8.59319e-09 0.00110141 -0.95625
-1.07627e-08 0.00110145 -0.9525 -2.06868e-08 0.00110162 -0.94875 -3.06164e-08 0.00110179 -0.945 -4.05494e-08
0.00110196 -0.94125 -5.0576e-08 0.00110214 -0.9375 -6.07811e-08 0.00110231 -0.93375 -7.11596e-08 0.00110249
-0.93 -8.15474e-08 0.00110267 -0.92625 -9.19389e-08 0.00110284 -0.9225 -1.02422e-07 0.00110302 -0.91875
-1.1308e-07 0.00110321 -0.915 -1.23904e-07 0.00110339 -0.91125 -1.34741e-07 0.00110358 -0.9075 -1.45582e-07
0.00110376 -0.90375 -1.56518e-07 0.00110395 -0.9 -1.67633e-07 0.00110414 -0.89625 -1.78912e-07 0.00110433
-0.8925 -1.90387e-07 0.00110453 -0.88875 -2.02044e-07 0.00110473 -0.885 -2.13797e-07 0.00110494 -0.88125
-2.25554e-07 0.00110514 -0.8775 -2.3727e-07 0.00110535 -0.87375 -2.49209e-07 0.00110556 -0.87 -2.61322e-07
0.00110577 -0.86625 -2.73529e-07 0.00110599 -0.8625 -2.85742e-07 0.0011062 -0.85875 -2.97898e-07 0.00110642
-0.855 -3.10284e-07 0.00110664 -0.85125 -3.22836e-07 0.00110687 -0.8475 -3.35478e-07 0.0011071 -0.84375
-3.48125e-07 0.00110733 -0.84 -3.60753e-07 0.00110756 -0.83625 -3.73571e-07 0.0011078 -0.8325 -3.8655e-07
0.00110804 -0.82875 -3.99618e-07 0.00110828 -0.825 -4.12692e-07 0.00110853 -0.82125 -4.25677e-07 0.00110877
-0.8175 -4.38917e-07 0.00110903 -0.81375 -4.52314e-07 0.00110928 -0.81 -4.65798e-07 0.00110955 -0.80625
-4.79288e-07 0.00110981 -0.8025 -4.9267e-07 0.00111007 -0.79875 -5.06323e-07 0.00111034 -0.795 -5.20127e-07
0.00111061 -0.79125 -5.34016e-07 0.00111089 -0.7875 -5.47912e-07 0.00111117 -0.78375 -5.6178e-07 0.00111145
-0.78 -5.75839e-07 0.00111174 -0.77625 -5.90046e-07 0.00111204 -0.7725 -6.04338e-07 0.00111234 -0.76875
-6.18637e-07 0.00111264 -0.765 -6.32905e-07 0.00111294 -0.76125 -6.47371e-07 0.00111324 -0.7575 -6.61986e-07
0.00111356 -0.75375 -6.76687e-07 0.00111388 -0.75 -6.91396e-07 0.0011142 -0.74625 -7.0592e-07 0.00111452
-0.7425 -7.20795e-07 0.00111485 -0.73875 -7.35817e-07 0.00111519 -0.735 -7.50923e-07 0.00111554 -0.73125
-7.66038e-07 0.00111588 -0.7275 -7.80937e-07 0.00111623 -0.72375 -7.96216e-07 0.00111658 -0.72 -8.11637e-07
0.00111694 -0.71625 -8.2714e-07 0.00111731 -0.7125 -8.42653e-07 0.00111768 -0.70875 -8.57912e-07 0.00111805
-0.705 -8.73594e-07 0.00111843 -0.70125 -8.8942e-07 0.00111883 -0.6975 -9.05329e-07 0.00111922 -0.69375
-9.21249e-07 0.00111962 -0.69 -9.37134e-07 0.00112002 -0.68625 -9.5323e-07 0.00112043 -0.6825 -9.69472e-07
0.00112085 -0.67875 -9.858e-07 0.00112128 -0.675 -1.00214e-06 0.0011217 -0.67125 -1.01844e-06 0.00112213
-0.6675 -1.03497e-06 0.00112257 -0.66375 -1.05166e-06 0.00112302 -0.66 -1.06843e-06 0.00112348 -0.65625
-1.08522e-06 0.00112394 -0.6525 -1.10161e-06 0.0011244 -0.64875 -1.1186e-06 0.00112487 -0.645 -1.13574e-06
0.00112536 -0.64125 -1.15299e-06 0.00112586 -0.6375 -1.17024e-06 0.00112635 -0.63375 -1.18747e-06 0.00112684
-0.63 -1.20493e-06 0.00112735 -0.62625 -1.22256e-06 0.00112788 -0.6225 -1.24028e-06 0.00112841 -0.61875
-1.25802e-06 0.00112894 -0.615 -1.27573e-06 0.00112947 -0.61125 -1.2937e-06 0.00113002 -0.6075 -1.31183e-06
0.00113058 -0.60375 -1.33007e-06 0.00113115 -0.6 -1.34833e-06 0.00113172 -0.59625 -1.36657e-06 0.00113229
-0.5925 -1.38492e-06 0.00113286 -0.58875 -1.40329e-06 0.00113344 -0.585 -1.42177e-06 0.00113402 -0.58125
-1.44043e-06 0.00113462 -0.5775 -1.45852e-06 0.00113523 -0.57375 -1.47745e-06 0.00113585 -0.57 -1.4964e-06
0.00113646 -0.56625 -1.51546e-06 0.00113709 -0.5625 -1.53471e-06 0.00113773 -0.55875 -1.55327e-06 0.00113839
-0.555 -1.57281e-06 0.00113905 -0.55125 -1.59236e-06 0.00113971 -0.5475 -1.61204e-06 0.00114038 -0.54375
-1.63191e-06 0.00114107 -0.54 -1.65194e-06 0.00114178 -0.53625 -1.67212e-06 0.00114249 -0.5325 -1.69232e-06
0.0011432 -0.52875 -1.71265e-06 0.00114392 -0.525 -1.73319e-06 0.00114466 -0.52125 -1.75275e-06 0.00114542
-0.5175 -1.77362e-06 0.00114617 -0.51375 -1.79452e-06 0.00114693 -0.51 -1.81556e-06 0.0011477 -0.50625
-1.8368e-06 0.00114849 -0.5025 -1.85688e-06 0.0011493 -0.49875 -1.87849e-06 0.00115011 -0.495 -1.90014e-06
0.00115092 -0.49125 -1.92192e-06 0.00115175 -0.4875 -1.94392e-06 0.00115259 -0.48375 -1.96614e-06 0.00115345
-0.48 -1.98854e-06 0.00115431 -0.47625 -2.01098e-06 0.00115517 -0.4725 -2.03357e-06 0.00115604 -0.46875
-2.05638e-06 0.00115693 -0.465 -2.07944e-06 0.00115784 -0.46125 -2.1027e-06 0.00115875 -0.4575 -2.126e-06
0.00115966 -0.45375 -2.14947e-06 0.00116058 -0.45 -2.17318e-06 0.00116152 -0.44625 -2.19718e-06 0.00116247
-0.4425 -2.22141e-06 0.00116343 -0.43875 -2.24569e-06 0.00116438 -0.435 -2.27014e-06 0.00116534 -0.43125
-2.29485e-06 0.00116632 -0.4275 -2.31723e-06 0.00116731 -0.42375 -2.34254e-06 0.0011683 -0.42 -2.36789e-06
0.00116929 -0.41625 -2.39343e-06 0.00117028 -0.4125 -2.41922e-06 0.00117128 -0.40875 -2.44223e-06 0.00117229
-0.405 -2.46868e-06 0.0011733 -0.40125 -2.4952e-06 0.00117431 -0.3975 -2.5219e-06 0.00117532 -0.39375
-2.54886e-06 0.00117633 -0.39 -2.57627e-06 0.00117733 -0.38625 -2.60398e-06 0.00117834 -0.3825 -2.63176e-06
0.00117935 -0.37875 -2.65974e-06 0.00118034 -0.375 -2.68799e-06 0.00118132 -0.37125 -2.71676e-06 0.00118229
-0.3675 -2.74587e-06 0.00118325 -0.36375 -2.77506e-06 0.00118422 -0.36 -2.80446e-06 0.00118516 -0.35625
-2.83417e-06 0.00118606 -0.3525 -2.85909e-06 0.00118693 -0.34875 -2.88979e-06 0.0011878 -0.345 -2.92056e-06
0.00118867 -0.34125 -2.95158e-06 0.00118949 -0.3375 -2.98291e-06 0.00119025 -0.33375 -3.01498e-06 0.00119094
-0.33 -3.04746e-06 0.00119164 -0.32625 -3.08003e-06 0.00119233 -0.3225 -3.11285e-06 0.00119295 -0.31875
-3.14599e-06 0.00119347 -0.315 -3.17998e-06 0.00119388 -0.31125 -3.21443e-06 0.00119429 -0.3075 -3.24897e-06
0.0011947 -0.30375 -3.2838e-06 0.001195 -0.3 -3.31897e-06 0.00119514 -0.29625 -3.34584e-06 0.00119512
-0.2925 -3.38277e-06 0.00119487 -0.28875 -3.42006e-06 0.00119439 -0.285 -3.45762e-06 0.00119373 -0.28125
-3.49528e-06 0.00119307 -0.2775 -3.5227e-06 0.00119242 -0.27375 -3.56204e-06 0.00119143 -0.27 -3.60169e-06
0.0011901 -0.26625 -3.64159e-06 0.00118853 -0.2625 -3.68157e-06 0.00118697 -0.25875 -3.70932e-06 0.00118541
-0.255 -3.75117e-06 0.00118336 -0.25125 -3.79329e-06 0.00118084 -0.2475 -3.83563e-06 0.00117798 -0.24375
-3.87804e-06 0.00117512 -0.24 -3.92186e-06 0.00117228 -0.23625 -3.96638e-06 0.0011688 -0.2325 -4.0111e-06
0.00116469 -0.22875 -4.05598e-06 0.00116017 -0.225 -4.10092e-06 0.00115566 -0.22125 -4.1284e-06 0.00115118
-0.2175 -4.17532e-06 0.00114584 -0.21375 -4.22236e-06 0.00113963 -0.21 -4.26949e-06 0.00113292 -0.20625
-4.31664e-06 0.00112626 -0.2025 -4.34338e-06 0.00111964 -0.19875 -4.39358e-06 0.00111182 -0.195 -4.44379e-06
0.00110279 -0.19125 -4.49399e-06 0.00109318 -0.1875 -4.54418e-06 0.00108367 -0.18375 -4.59581e-06 0.00107424
-0.18 -4.64744e-06 0.0010633 -0.17625 -4.69872e-06 0.00105085 -0.1725 -4.74978e-06 0.00103789 -0.16875
-4.80077e-06 0.00102511 -0.165 -4.85389e-06 0.0010125 -0.16125 -4.90658e-06 0.000998111 -0.1575 -4.95867e-06
0.000981983 -0.15375 -5.0105e-06 0.000965617 -0.15 -5.0622e-06 0.000949554 -0.14625 -5.11623e-06 0.000933782
-0.1425 -5.1685e-06 0.000916016 -0.13875 -5.21907e-06 0.000896316 -0.135 -5.26939e-06 0.000876879 -0.13125
-5.31958e-06 0.000857902 -0.1275 -5.33511e-06 0.000839362 -0.12375 -5.38612e-06 0.000818763 -0.12 -5.43634e-06
0.000796508 -0.11625 -5.48644e-06 0.000774896 -0.1125 -5.53642e-06 0.000753905 -0.10875 -5.54921e-06 0.000733506
-0.105 -5.59776e-06 0.000711093 -0.10125 -5.64466e-06 0.000687719 -0.0975 -5.69155e-06 0.000665139 -0.0937499
-5.73842e-06 0.000643324 -0.0899999 -5.78705e-06 0.000622233 -0.0862499 -5.83629e-06 0.000599619 -0.0824999 -5.88612e-06
0.000576942 -0.0787499 -5.93589e-06 0.000555129 -0.0749999 -5.9856e-06 0.000534144 -0.0712499 -6.03644e-06 0.00051394
-0.0674999 -6.09376e-06 0.000493666 -0.0637499 -6.15207e-06 0.000474039 -0.0599999 -6.21006e-06 0.00045518 -0.0562499
-6.26778e-06 0.00043706 -0.0524999 -6.28412e-06 0.000419633 -0.0487498 -6.34452e-06 0.000404559 -0.0449998 -6.40459e-06
0.00039001 -0.0412498 -6.46436e-06 0.000375968 -0.0374998 -6.52384e-06 0.000362417 -0.0337498 -6.58312e-06 0.000349328
-0.0299998 -6.64548e-06 0.000340701 -0.0262498 -6.70767e-06 0.000332278 -0.0224998 -6.76971e-06 0.000324056 -0.0187499
-6.83161e-06 0.00031603 -0.0149999 -6.89246e-06 0.000308193 -0.0112499 -6.96499e-06 0.000304767 -0.0074999 -7.03753e-06
0.000301377 -0.00374991 -7.1101e-06 0.000298024 6.11922e-08 -7.1827e-06 0.000294706 0.00375005 -7.21691e-06 0.000291426
0.00750005 -7.28398e-06 0.000288193 0.01125 -7.351e-06 0.000284994 0.015 -7.418e-06 0.00028183 0.01875
-7.48496e-06 0.000278699 0.0225 -7.53348e-06 0.000277664 0.02625 -7.61256e-06 0.000276637 0.03 -7.6918e-06
0.000275613 0.03375 -7.7712e-06 0.000274594 0.0375 -7.85075e-06 0.000273578 0.04125 -7.91124e-06 0.000273091
0.045 -7.99926e-06 0.000272608 0.04875 -8.08749e-06 0.000272125 0.0525 -8.17593e-06 0.000271644 0.05625
-8.26458e-06 0.000271163 0.06 -8.36783e-06 0.000270965 0.06375 -8.4683e-06 0.00027077 0.0675 -8.56902e-06
0.000270575 0.07125 -8.66999e-06 0.00027038 0.075 -8.77122e-06 0.000270185 0.07875 -8.86201e-06 0.000270138
0.0825 -8.97647e-06 0.000270093 0.08625 -9.09122e-06 0.000270048 0.09 -9.20626e-06 0.000270003 0.09375
-9.32159e-06 0.000269958 0.0975 -9.4264e-06 0.000269964 0.10125 -9.55505e-06 0.000269971 0.105 -9.68402e-06
0.000269978 0.10875 -9.81333e-06 0.000269986 0.1125 -9.94296e-06 0.000269993 0.11625 -1.00893e-05 0.000270012
[...]
POINT_DATA 19458
FIELD attributes 3
age 1 19458 float
0 7.30156e-05 0.000146035 0.000219058 0.000292084 0.000365115 0.000553996 0.000742877 0.000931758 0.00112066 0.00130959
0.00145742 0.00160525 0.00175308 0.00190091 0.00204711 0.00208858 0.00213006 0.00217153 0.00221301 0.00225449
0.00244354 0.00263259 0.00282164 0.00301071 0.00319982 0.00338896 0.0035781 0.00376725 0.00395641 0.00414562
0.00433486 0.0045241 0.00471335 0.00490261 0.00509192 0.00528128 0.00547067 0.00566011 0.00584958 0.00603905
0.00622851 0.00641803 0.00660759 0.00679718 0.00698677 0.00717636 0.007366 0.0075557 0.00774542 0.00793514
0.00812487 0.00831464 0.00850448 0.00869434 0.00888421 0.00907407 0.009264 0.00945398 0.009644 0.00983402
0.010024 0.0102141 0.0104043 0.0105945 0.0107846 0.0109748 0.0111651 0.0113554 0.0115458 0.0117361
0.0119265 0.0121169 0.0123074 0.012498 0.0126886 0.0128791 0.0130697 0.0132605 0.0134512 0.013642
0.0138328 0.0140236 0.0142146 0.0144055 0.0145965 0.0147875 0.0149786 0.0151698 0.015361 0.0155523
0.0157435 0.0159349 0.0161263 0.0163178 0.0165093 0.0167008 0.0168924 0.0170842 0.017276 0.0174678
0.0176596 0.0178515 0.0180435 0.0182357 0.0184278 0.0186199 0.0188121 0.0190045 0.019197 0.0193895
0.0195819 0.0197745 0.0199673 0.0201601 0.020353 0.0205458 0.0207387 0.0209315 0.0211245 0.0213176
0.0215108 0.0217041 0.0218974 0.0220908 0.0222843 0.022478 0.0226718 0.0228655 0.0230593 0.0232534
0.0234476 0.0236418 0.0238361 0.0240304 0.024225 0.0244198 0.0246146 0.0248094 0.0250043 0.0251995
0.0253949 0.0255903 0.0257857 0.0259812 0.026177 0.0263731 0.0265692 0.0267653 0.0269615 0.0271581
0.0273549 0.0275517 0.0277485 0.0279456 0.0281429 0.0283405 0.0285382 0.0287358 0.0289337 0.0291319
0.0293305 0.029529 0.0297276 0.0299264 0.0301256 0.0303252 0.0305247 0.0307243 0.0309242 0.0311244
0.0313251 0.0315258 0.0317264 0.0319274 0.0321289 0.0323308 0.0325327 0.0327346 0.0329368 0.0331396
0.0333428 0.033546 0.0337492 0.0339528 0.034157 0.0343616 0.0345663 0.034771 0.034976 0.0351817
0.0353878 0.035594 0.0358002 0.0360069 0.0362141 0.0364219 0.0366303 0.0368392 0.0370487 0.0372581
0.0374675 0.0376775 0.037888 0.038099 0.03831 0.0385209 0.0387324 0.0389444 0.0391568 0.0393691
0.0395814 0.0397941 0.0400072 0.0402206 0.0404339 0.0406471 0.0408606 0.0410744 0.0412882 0.0415019
0.0417154 0.041929 0.0421425 0.042356 0.0425691 0.042782 0.0429945 0.0432066 0.0434183 0.0436296
0.0438406 0.0440508 0.04426 0.0444686 0.0446769 0.0448847 0.0450911 0.045296 0.0455003 0.0457043
0.0459078 0.0461092 0.0463087 0.0465078 0.0467067 0.0469051 0.0471008 0.0472946 0.0474883 0.0476817
0.0478749 0.0480647 0.0482532 0.0484417 0.0486301 0.0488185 0.0490032 0.0491874 0.0493717 0.0495562
0.0497408 0.049922 0.0501035 0.0502851 0.0504669 0.050649 0.0508289 0.051009 0.0511893 0.0513698
0.0515504 0.0517303 0.0519103 0.0520904 0.0522705 0.0524508 0.0526311 0.0528115 0.0529919 0.0531725
0.0533531 0.0535338 0.0537145 0.0538952 0.0540759 0.054257 0.054438 0.0546191 0.0548001 0.0549812
0.0551626 0.055344 0.0555254 0.0557069 0.0558883 0.05607 0.0562518 0.0564335 0.0566152 0.0567969
0.056979 0.057161 0.057343 0.057525 0.0577071 0.0578894 0.0580717 0.058254 0.0584363 0.0586186
0.0588012 0.0589838 0.0591664 0.059349 0.0595316 0.0597145 0.0598974 0.0600803 0.0602632 0.0604461
0.0606293 0.0608125 0.0609957 0.0611789 0.0613621 0.0615456 0.0617291 0.0619126 0.0620961 0.0622796
0.0624634 0.0626472 0.062831 0.0630148 0.0631986 0.0633827 0.0635668 0.0637508 0.0639349 0.064119
0.0643033 0.0644876 0.064672 0.0648563 0.0650406 0.0652252 0.0654098 0.0655943 0.0657789 0.0659634
0.0661482 0.066333 0.0665178 0.0667025 0.0668873 0.0670723 0.0672574 0.0674426 0.0676277 0.0678128
0.067998 0.0681833 0.0683685 0.0685538 0.0687391 0.0689244 0.0691098 0.0692952 0.0694807 0.0696661
0.0698515 0.0700371 0.0702226 0.0704081 0.0705937 0.0707792 0.0709649 0.0711505 0.0713361 0.0715218
0.0717074 0.0718932 0.0720789 0.0722646 0.0724503 0.0726361 0.0728219 0.0730077 0.0731934 0.0733792
0.073565 0.0737509 0.0739367 0.0741225 0.0743084 0.0744942 0.0746801 0.0748659 0.0750518 0.0752376
0.0754235 0.0756093 0.0757952 0.075981 0.0761669 0.0763528 0.0765386 0.0767244 0.0769102 0.0770961
0.0772819 0.0774677 0.0776535 0.0778393 0.078025 0.0782109 0.0783966 0.0785823 0.0787681 0.0789538
0.0791396 0.0793253 0.079511 0.0796967 0.0798824 0.0800681 0.0802538 0.0804394 0.0806251 0.0808108
0.0809965 0.0811822 0.0813679 0.0815535 0.0817392 0.0819249 0.0821106 0.0822963 0.082482 0.0826677
0.0828535 0.0830392 0.0832249 0.0834106 0.0835964 0.0837822 0.083968 0.0841538 0.0843396 0.0845253
0.0847112 0.0848971 0.0850829 0.0852688 0.0854547 0.0856406 0.0858266 0.0860125 0.0861984 0.0863844
0.0865704 0.0867564 0.0869424 0.0871284 0.0873144 0.0875005 0.0876866 0.0878727 0.0880588 0.0882449
0.088431 0.0886172 0.0888033 0.0889895 0.0891756 0.0893618 0.089548 0.0897342 0.0899204 0.0901066
0.0901372 0.0901678 0.0901983 0.0902289 0.0902595 0.0904152 0.0905708 0.0907265 0.0908822 0.0910379
0.0912242 0.0914105 0.0915968 0.091783 0.0919693 0.0921557 0.092342 0.0925283 0.0927146 0.092901
0.0930873 0.0932737 0.09346 0.0936464 0.0938328 0.0940192 0.0942056 0.0943919 0.0945783 0.0947647
0.0949512 0.0951376 0.095324 0.0955104 0.0956969 0.0958833 0.0960698 0.0962562 0.0964427 0.0966292
0.0968157 0.0970022 0.0971888 0.0973753 0.0975619 0.0977485 0.0979351 0.0981217 0.0983083 0.0984949
0.0986816 0.0988683 0.0990549 0.0992416 0.0994283 0.099615 0.0998017 0.0999884 0.100175 0.100362
0.100548 0.100735 0.100922 0.101109 0.101295 0.101482 0.101669 0.101856 0.102042 0.102229
0.102416 0.102603 0.10279 0.102977 0.103164 0.103351 0.103538 0.103725 0.103912 0.1041
0.104287 0.104474 0.104662 0.10485 0.105037 0.105225 0.105413 0.105601 0.105789 0.105977
0.106165 0.106354 0.106543 0.106731 0.10692 0.107108 0.107298 0.107487 0.107676 0.107865
0.108054 0.108244 0.108434 0.108624 0.108813 0.109003 0.109193 0.109384 0.109574 0.109764
0.109954 0.110145 0.110335 0.110526 0.110717 0.110907 0.111098 0.111289 0.11148 0.11167
0.111861 0.112052 0.112243 0.112434 0.112624 0.112815 0.113006 0.113197 0.113388 0.113579
0.11377 0.113961 0.114152 0.114343 0.114534 0.114725 0.114916 0.115107 0.115299 0.11549
0.115681 0.115872 0.116063 0.116254 0.116445 0.116636 0.116827 0.117018 0.117209 0.1174
0.117591 0.117782 0.117973 0.118164 0.118355 0.118546 0.118737 0.118928 0.119119 0.11931
0.119501 0.119692 0.119883 0.120074 0.120264 0.120455 0.120646 0.120837 0.121028 0.121219
0.12141 0.121601 0.121792 0.121982 0.122173 0.122364 0.122555 0.122746 0.122937 0.123127
0.123318 0.123509 0.1237 0.123891 0.124082 0.124272 0.124463 0.124654 0.124845 0.125035
0.125226 0.125417 0.125608 0.125799 0.125989 0.12618 0.126371 0.126561 0.126752 0.126943
0.127133 0.127324 0.127515 0.127706 0.127897 0.128087 0.128278 0.128469 0.12866 0.12885
0.129041 0.129232 0.129422 0.129613 0.129804 0.129994 0.130185 0.130376 0.130566 0.130757
0.130947 0.131138 0.131328 0.131519 0.13171 0.1319 0.132091 0.132281 0.132472 0.132662
0.132852 0.133043 0.133234 0.133424 0.133615 0.133805 0.133995 0.134186 0.134376 0.134567
0.134757 0.134947 0.135138 0.135328 0.135519 0.135708 0.135899 0.136089 0.13628 0.13647
0.13666 0.13685 0.137041 0.137231 0.137421 0.137611 0.137801 0.137992 0.138182 0.138373
0.138562 0.138752 0.138943 0.139133 0.139323 0.139513 0.139703 0.139893 0.140084 0.140274
0.140463 0.140653 0.140844 0.141034 0.141224 0.141413 0.141604 0.141794 0.141984 0.142175
0.142364 0.142554 0.142744 0.142934 0.143124 0.143313 0.143503 0.143693 0.143884 0.144074
0.144262 0.144452 0.144642 0.144832 0.145022 0.145211 0.145401 0.145591 0.14578 0.14597
0.146159 0.146349 0.146538 0.146728 0.146918 0.147106 0.147296 0.147485 0.147675 0.147865
0.148053 0.148243 0.148432 0.148622 0.148811 0.148999 0.149189 0.149378 0.149567 0.149757
0.149945 0.150134 0.150324 0.150513 0.150702 0.15089 0.15108 0.151269 0.151458 0.151647
0.152023 0.1524 0.152777 0.153154 0.153531 0.154282 0.155034 0.155785 0.156536 0.157288
0.158788 0.160289 0.16179 0.163291 0.164791 0.166292 0.167792 0.169292 0.170793 0.172293
0.175293 0.178293 0.181294 0.184294 0.187294 0.193294 0.199294 0.205294 0.211295 0.217295
0.223295 0.229295 0.235295 0.241295 0.247295 0.253295 0.259295 0.265295 0.271295 0.277295
0.283295 0.289295 0.295295 0.301295 0.307295 0.313295 0.319295 0.325296 0.331296 0.337296
0.343296 0.349296 0.355296 0.361296 0.367296 0.373296 0.379296 0.385296 0.391296 0.397296
0.403296 0.403361 0 7.36892e-05 0.000147382 0.000221079 0.00029478 0.000368485 0.000475396 0.000582317
0.000689249 0.000796191 0.000897102 0.00098207 0.00106704 0.00115203 0.00123701 0.00132201 0.00151281 0.00170364
0.00189451 0.00208541 0.00227635 0.00246733 0.00265834 0.00284939 0.00304048 0.00323161 0.00342277 0.00361398
0.00380522 0.00399651 0.00418784 0.0043792 0.00457062 0.00476207 0.00495357 0.00514511 0.00533669 0.00552832
0.00572 0.00591173 0.0061035 0.00629532 0.00648718 0.0066791 0.00687107 0.00706309 0.00725516 0.00744728
0.00763945 0.00783168 0.00802397 0.0082163 0.0084087 0.00860115 0.00879366 0.00898623 0.00917886 0.00937155
0.0095643 0.00975711 0.00994999 0.0101429 0.0103359 0.010529 0.0107221 0.0109153 0.0111086 0.011302
0.0114954 0.0116889 0.0118824 0.0120761 0.0122698 0.0124636 0.0126575 0.0128514 0.0130454 0.0132396
0.0134338 0.013628 0.0138224 0.0140169 0.0142114 0.014406 0.0146008 0.0147956 0.0149905 0.0151855
0.0153806 0.0155758 0.0157712 0.0159666 0.0161621 0.0163577 0.0165535 0.0167493 0.0169453 0.0171413
0.0173375 0.0175338 0.0177303 0.0179268 0.0181235 0.0183203 0.0185172 0.0187143 0.0189115 0.0191088
0.0193063 0.0195039 0.0197017 0.0198996 0.0200977 0.0202959 0.0204942 0.0206927 0.0208914 0.0210903
0.0212893 0.0214885 0.0216878 0.0218873 0.022087 0.0222869 0.022487 0.0226873 0.0228877 0.0230884
0.0232893 0.0234903 0.0236916 0.0238931 0.0240948 0.0242967 0.0244989 0.0247013 0.0249039 0.0251068
0.0253099 0.0255133 0.0257169 0.0259208 0.0261249 0.0263294 0.0265341 0.0267391 0.0269443 0.0271499
0.0273558 0.027562 0.0277685 0.0279753 0.0281825 0.02839 0.0285978 0.028806 0.0290146 0.0292235
0.0294328 0.0296425 0.0298526 0.030063 0.0302739 0.0304853 0.030697 0.0309092 0.0311218 0.031335
0.0315485 0.0317626 0.0319772 0.0321922 0.0324078 0.0326239 0.0328406 0.0330578 0.0332756 0.033494
0.033713 0.0339326 0.0341528 0.0343736 0.0345951 0.0348173 0.0350403 0.0352639 0.0354881 0.0357132
0.035939 0.0361656 0.036393 0.0366212 0.0368503 0.0370802 0.037311 0.0375427 0.0377753 0.0380089
0.0382434 0.0384789 0.0387154 0.0389529 0.0391915 0.0394312 0.039672 0.0399139 0.0401569 0.0404011
0.0406464 0.0408929 0.0411407 0.0413898 0.0416401 0.0418917 0.0421446 0.0423989 0.0426544 0.0429111
0.0431689 0.043428 0.0436888 0.0439508 0.044214 0.0444783 0.0447437 0.045011 0.0452788 0.0455472
0.0458161 0.0460855 0.0463574 0.0464846 0.0466117 0.0467388 0.0468658 0.0469457 0.0470996 0.0472534
0.047407 0.0475604 0.0477148 0.0479856 0.0482546 0.0485219 0.0487871 0.0490555 0.0492015 0.0493462
0.0494898 0.0496323 0.0497422 0.0498629 0.0499827 0.0501017 0.05022 0.0503384 0.0505858 0.0508281
0.0510654 0.051298 0.0515271 0.0515424 0.0515577 0.0515729 0.0515881 0.0516034 0.0518101 0.0520123
0.0522101 0.0524037 0.0525912 0.0527024 0.0528119 0.0529197 0.0530262 0.0531598 0.0532344 0.0533083
0.0533815 0.0534541 0.0535256 0.0536999 0.0538707 0.054038 0.054202 0.0543596 0.0544978 0.0546345
0.0547697 0.0549034 0.0551257 0.05514 0.0551543 0.0551686 0.0551829 0.0551991 0.055331 0.0554623
0.0555931 0.0557233 0.0558522 0.0559951 0.0561382 0.0562814 0.0564247 0.0565679 0.0567113 0.0568549
0.0569988 0.0571432 0.0572878 0.0574329 0.0575783 0.0577241 0.0578702 0.0580167 0.0581635 0.0583107
0.0584581 0.0586059 0.058754 0.0589024 0.0590511 0.0592002 0.0593495 0.0594992 0.0596491 0.0597994
0.0599499 0.0601008 0.0602519 0.0604034 0.0605551 0.0607072 0.0608596 0.0610122 0.0611652 0.0613185
0.0614722 0.0616261 0.0617804 0.0619351 0.06209 0.0622453 0.062401 0.062557 0.0627133 0.06287
0.063027 0.0631844 0.0633421 0.0635002 0.0636586 0.0638174 0.0639765 0.064136 0.0642958 0.0644559
0.0646164 0.0647772 0.0649384 0.0650999 0.0652617 0.0654238 0.0655863 0.065749 0.0659121 0.0660755
0.0662392 0.0664031 0.0665674 0.066732 0.0668968 0.0670619 0.0672273 0.067393 0.067559 0.0677251
0.0678916 0.0680583 0.0682252 0.0683924 0.0685598 0.0687275 0.0688954 0.0690635 0.0692319 0.0694004
0.0695691 0.0697381 0.0699073 0.0700766 0.0702462 0.0704159 0.0705859 0.070756 0.0709263 0.0710968
0.0712674 0.0714382 0.0716092 0.0717803 0.0719516 0.072123 0.0722946 0.0724663 0.0726382 0.0728102
0.0729823 0.0731545 0.0733269 0.0734994 0.0736719 0.0738446 0.0740174 0.0741903 0.0743633 0.0745364
0.0747095 0.0748827 0.0750559 0.0752293 0.0754027 0.0755761 0.0757496 0.0759231 0.0760967 0.0762703
0.0764438 0.0766174 0.076791 0.0769646 0.0771382 0.0773117 0.0774853 0.0776588 0.0778323 0.0780057
0.0781791 0.0783524 0.0785257 0.078699 0.0788722 0.0790454 0.0792185 0.0793915 0.0795645 0.0797375
0.0799103 0.0800831 0.0802559 0.0804286 0.0806013 0.080774 0.0809466 0.0811192 0.0812918 0.0814644
0.081637 0.0818096 0.0819822 0.0821549 0.0823276 0.0825004 0.0826732 0.0828461 0.083019 0.083192
0.0833651 0.0835383 0.0837115 0.0838849 0.0840584 0.0842319 0.0844056 0.0845794 0.0847533 0.0849273
0.0851014 0.0852756 0.08545 0.0856245 0.0857991 0.0859738 0.0861486 0.0863236 0.0864987 0.0866739
0.0868491 0.0870245 0.0872001 0.0873757 0.0875515 0.0877274 0.0879034 0.0880794 0.0882556 0.0884319
0.0886083 0.0887847 0.0889613 0.0890558 0.0891503 0.0892448 0.0893394 0.0894373 0.0895189 0.0896006
0.0896823 0.089764 0.0898458 0.0900229 0.0902001 0.0903774 0.0905547 0.0907321 0.0909097 0.0910873
0.0912649 0.0914427 0.0916205 0.0917984 0.0919764 0.0921544 0.0923324 0.0925106 0.0926888 0.0928672
0.0930455 0.093224 0.0934025 0.0935811 0.0937598 0.0939385 0.0941173 0.0942961 0.0944751 0.0946541
0.0948332 0.0950124 0.0951917 0.095371 0.0955504 0.0957299 0.0959095 0.0960891 0.0962689 0.0964488
0.0966288 0.0968089 0.096989 0.0971694 0.0973498 0.0975304 0.0977111 0.097892 0.0980735 0.0982552
0.098437 0.098619 0.0988011 0.0989825 0.0991638 0.0993453 0.0995267 0.0997082 0.09989 0.100072
0.100254 0.100435 0.100617 0.100799 0.100981 0.101163 0.101345 0.101528 0.10171 0.101893
0.102076 0.10226 0.102444 0.102628 0.102812 0.102998 0.103183 0.103369 0.103557 0.103744
0.103933 0.104123 0.104313 0.104504 0.104696 0.10489 0.105084 0.105279 0.105476 0.105674
0.105874 0.106074 0.106277 0.10648 0.106685 0.106892 0.107099 0.107309 0.107521 0.107734
0.107949 0.108166 0.108384 0.108605 0.108827 0.10905 0.109276 0.109503 0.109733 0.109964
0.110198 0.110433 0.11067 0.110909 0.11115 0.111392 0.111636 0.111882 0.11213 0.112379
0.11263 0.112883 0.113138 0.113394 0.113651 0.11391 0.114171 0.114433 0.114696 0.114961
0.115226 0.115493 0.115762 0.116031 0.116302 0.116573 0.116846 0.11712 0.117394 0.117669
0.117946 0.118222 0.1185 0.118779 0.119058 0.119338 0.119618 0.119899 0.120181 0.120462
0.120745 0.121027 0.12131 0.121594 0.121877 0.122162 0.122446 0.122731 0.123015 0.1233
0.123585 0.123871 0.124156 0.124442 0.124727 0.125013 0.125299 0.125585 0.125796 0.126008
0.126219 0.12643 0.126632 0.126708 0.126785 0.126861 0.126937 0.127013 0.127299 0.127584
0.12787 0.128155 0.12844 0.128724 0.129009 0.129294 0.129579 0.129863 0.130146 0.13043
0.130714 0.130997 0.13128 0.131562 0.131845 0.132127 0.132409 0.132691 0.132971 0.133252
0.133533 0.133813 0.134093 0.134372 0.134651 0.134931 0.135211 0.13549 0.135766 0.136045
0.136323 0.136601 0.136878 0.137153 0.13743 0.137707 0.137984 0.13826 0.138533 0.138808
0.139083 0.139358 0.139632 0.139904 0.140177 0.140449 0.140722 0.140993 0.141222 0.141451
0.141679 0.141908 0.142152 0.142191 0.14223 0.142268 0.142307 0.142346 0.142615 0.142884
0.143153 0.143422 0.14369 0.143957 0.144225 0.144492 0.144759 0.145026 0.14529 0.145557
0.145823 0.146088 0.146353 0.146616 0.14688 0.147145 0.147409 0.147672 0.147932 0.148195
0.148458 0.148721 0.148982 0.149241 0.149501 0.149763 0.150025 0.150284 0.150541 0.1508
0.151061 0.151321 0.151579 0.151834 0.152091 0.15235 0.152609 0.152865 0.153119 0.153375
0.153632 0.153889 0.154144 0.154397 0.154651 0.154907 0.155162 0.155416 0.155668 0.155921
0.156175 0.156429 0.156681 0.156932 0.157184 0.157436 0.157689 0.15794 0.15819 0.158441
0.158692 0.158943 0.159193 0.159442 0.159692 0.159941 0.160191 0.16044 0.160687 0.160936
0.161184 0.161432 0.16168 0.161927 0.162174 0.162421 0.162667 0.162914 0.162999 0.163084
0.16317 0.163255 0.163338 0.163499 0.163659 0.16382 0.163981 0.164142 0.164387 0.164632
0.164877 0.165122 0.165367 0.165611 0.165855 0.166099 0.166343 0.166586 0.166795 0.167003
0.167212 0.16742 0.167582 0.167625 0.167669 0.167712 0.167755 0.167798 0.168279 0.16876
0.169239 0.1697 0.170141 0.170957 0.171777 0.172596 0.173411 0.174223 0.175761 0.177303
0.17884 0.180373 0.181904 0.183414 0.18493 0.186445 0.187959 0.189471 0.192482 0.195495
0.198507 0.201518 0.204527 0.210532 0.216539 0.222545 0.228551 0.234557 0.240558 0.246562
0.252565 0.258569 0.264572 0.270573 0.276576 0.282579 0.288581 0.294584 0.300585 0.306587
0.312589 0.318592 0.324594 0.330595 0.336597 0.342598 0.3486 0.354602 0.360603 0.366604
0.372606 0.378608 0.384609 0.39061 0.396611 0.402612 0.408614 0.414615 0.420615 0.424181
0 7.36651e-05 0.000147335 0.000221009 0.000294688 0.000368372 0.000475524 0.000582687 0.00068986 0.000797044
0.000897667 0.000982443 0.00106723 0.00115201 0.00123681 0.00132161 0.00151235 0.00170312 0.00189393 0.00208477
0.00227565 0.00246656 0.00265751 0.00284849 0.00303951 0.00323057 0.00342167 0.0036128 0.00380398 0.00399519
0.00418645 0.00437774 0.00456908 0.00476046 0.00495188 0.00514334 0.00533485 0.0055264 0.005718 0.00590964
0.00610132 0.00629306 0.00648484 0.00667667 0.00686855 0.00706048 0.00725245 0.00744448 0.00763656 0.00782869
0.00802088 0.00821311 0.00840541 0.00859776 0.00879016 0.00898263 0.00917515 0.00936772 0.00956036 0.00975306
0.00994582 0.0101386 0.0103315 0.0105245 0.0107175 0.0109106 0.0111037 0.0112969 0.0114902 0.0116836
0.011877 0.0120705 0.0122641 0.0124577 0.0126515 0.0128453 0.0130391 0.0132331 0.0134271 0.0136213
0.0138155 0.0140098 0.0142041 0.0143986 0.0145932 0.0147878 0.0149825 0.0151774 0.0153723 0.0155673
0.0157625 0.0159577 0.016153 0.0163484 0.016544 0.0167396 0.0169353 0.0171312 0.0173272 0.0175233
0.0177195 0.0179158 0.0181122 0.0183088 0.0185055 0.0187023 0.0188993 0.0190963 0.0192935 0.0194909
0.0196884 0.019886 0.0200838 0.0202817 0.0204798 0.020678 0.0208764 0.0210749 0.0212736 0.0214725
0.0216716 0.0218708 0.0220701 0.0222697 0.0224694 0.0226694 0.0228695 0.0230698 0.0232703 0.023471
0.0236719 0.023873 0.0240744 0.0242759 0.0244777 0.0246797 0.0248819 0.0250844 0.0252871 0.02549
0.0256933 0.0258967 0.0261004 0.0263044 0.0265087 0.0267133 0.0269181 0.0271233 0.0273287 0.0275344
0.0277405 0.0279469 0.0281536 0.0283607 0.0285681 0.0287758 0.0289839 0.0291924 0.0294013 0.0296106
0.0298202 0.0298565 0.0298927 0.029929 0.0299653 0.0300009 0.0301751 0.0303497 0.0305246 0.0306997
0.0308752 0.0310875 0.0313003 0.0315136 0.0317274 0.0319417 0.0321565 0.0323718 0.0325878 0.0328044
0.0330215 0.0332392 0.0334576 0.0336766 0.0338964 0.0341168 0.0343379 0.0345597 0.0347824 0.0350058
0.03523 0.0354551 0.035681 0.0359078 0.0361356 0.0363643 0.036594 0.0368248 0.0370566 0.0372896
0.0375237 0.0377589 0.0379954 0.0382332 0.0384723 0.0387128 0.0389546 0.0391982 0.0394433 0.0396901
0.0399385 0.0401886 0.0404405 0.0406945 0.0409505 0.0412086 0.0414687 0.0417313 0.0419964 0.0422642
0.0425346 0.0428083 0.0430849 0.0433647 0.0436479 0.0439347 0.0442244 0.0445181 0.0448161 0.0451183
0.045426 0.0457359 0.0460503 0.0463694 0.0466931 0.0470269 0.0471845 0.0473433 0.0475033 0.0476642
0.0477416 0.0479471 0.048154 0.0483622 0.0485715 0.0487892 0.0490898 0.0493925 0.0496968 0.0500001
0.0500908 0.0502101 0.0503291 0.0504477 0.050566 0.0506889 0.0508858 0.0510805 0.051273 0.0514632
0.051587 0.0517913 0.051992 0.0521892 0.0523829 0.0525881 0.0526146 0.052641 0.0526674 0.0526936