# vtk DataFile Version 2.0
tracks
ASCII
DATASET POLYDATA
POINTS 20955 float
-1.001 1e-07 0.0011 -0.99955 9.97564e-08 0.00110002 -0.9981 9.95206e-08 0.00110004 -0.99665 9.92927e-08
0.00110007 -0.9952 9.90725e-08 0.0011001 -0.99375 9.88602e-08 0.00110014 -0.99 9.831e-08 0.00110023
-0.98625 9.778e-08 0.00110033 -0.9825 9.72499e-08 0.00110043 -0.97875 9.67501e-08 0.00110054 -0.975
9.63101e-08 0.00110066 -0.97125 9.59099e-08 0.00110081 -0.9675 9.55296e-08 0.00110096 -0.96375 9.51492e-08
0.00110111 -0.96 9.48139e-08 0.00110127 -0.95625 9.45668e-08 0.00110143 -0.9525 9.43984e-08 0.0011016
-0.94875 9.42397e-08 0.00110177 -0.945 9.4081e-08 0.00110193 -0.94125 9.40575e-08 0.00110211 -0.9375
9.42972e-08 0.00110228 -0.93375 9.47803e-08 0.00110245 -0.93 9.5284e-08 0.00110263 -0.92625 9.57878e-08
0.00110281 -0.9225 9.63616e-08 0.00110298 -0.91875 9.70707e-08 0.00110316 -0.915 9.78944e-08 0.00110335
-0.91125 9.87399e-08 0.00110353 -0.9075 9.95857e-08 0.00110371 -0.90375 1.00188e-07 0.0011039 -0.9
1.0032e-07 0.00110409 -0.89625 9.99587e-08 0.00110428 -0.8925 9.88598e-08 0.00110447 -0.88875 9.69999e-08
0.00110467 -0.885 9.47434e-08 0.00110487 -0.88125 9.24859e-08 0.00110507 -0.8775 9.02196e-08 0.00110527
-0.87375 8.76071e-08 0.00110548 -0.87 8.46394e-08 0.00110569 -0.86625 8.14855e-08 0.0011059 -0.8625
7.83302e-08 0.00110612 -0.85875 7.5167e-08 0.00110633 -0.855 7.19928e-08 0.00110655 -0.85125 6.88002e-08
0.00110677 -0.8475 6.55974e-08 0.00110699 -0.84375 6.23931e-08 0.00110722 -0.84 5.91722e-08 0.00110744
-0.83625 5.61043e-08 0.00110767 -0.8325 5.31737e-08 0.00110791 -0.82875 5.0315e-08 0.00110815 -0.825
4.74549e-08 0.00110839 -0.82125 4.45898e-08 0.00110862 -0.8175 4.16593e-08 0.00110887 -0.81375 3.86591e-08
0.00110912 -0.81 3.56212e-08 0.00110937 -0.80625 3.25818e-08 0.00110962 -0.8025 2.95384e-08 0.00110987
-0.79875 2.62071e-08 0.00111013 -0.795 2.25848e-08 0.00111039 -0.79125 1.88063e-08 0.00111066 -0.7875
1.50257e-08 0.00111093 -0.784524 1.20206e-08 0.00111114 -0.781548 8.89462e-09 0.00111135 -0.778572 5.64426e-09
0.00111157 -0.775596 2.26941e-09 0.00111179 -0.773609 1.46059e-17 0.00111194 -0.772638 -1.11078e-09 0.00111202
-0.771666 -2.22172e-09 0.00111209 -0.770694 -3.33281e-09 0.00111216 -0.769722 -4.44407e-09 0.00111223 -0.76875
-5.55548e-09 0.00111231 -0.765 -9.84406e-09 0.00111259 -0.76125 -1.4321e-08 0.00111288 -0.7575 -1.89861e-08
0.00111317 -0.75375 -2.37541e-08 0.00111347 -0.75 -2.85248e-08 0.00111376 -0.74625 -3.32895e-08 0.00111406
-0.7425 -3.82149e-08 0.00111436 -0.73875 -4.32921e-08 0.00111467 -0.735 -4.84532e-08 0.00111498 -0.73125
-5.36174e-08 0.0011153 -0.7275 -5.87674e-08 0.00111561 -0.72375 -6.39953e-08 0.00111593 -0.72 -6.92827e-08
0.00111626 -0.71625 -7.46043e-08 0.00111659 -0.7125 -7.99293e-08 0.00111692 -0.70875 -8.52303e-08 0.00111725
-0.705 -9.06224e-08 0.00111759 -0.70125 -9.60766e-08 0.00111793 -0.6975 -1.01567e-07 0.00111828 -0.69375
-1.07061e-07 0.00111863 -0.69 -1.12552e-07 0.00111898 -0.68625 -1.18106e-07 0.00111934 -0.6825 -1.23713e-07
0.0011197 -0.67875 -1.29351e-07 0.00112007 -0.675 -1.34994e-07 0.00112044 -0.67125 -1.40633e-07 0.00112081
-0.6675 -1.46423e-07 0.00112119 -0.66375 -1.52351e-07 0.00112157 -0.66 -1.5836e-07 0.00112196 -0.65625
-1.64373e-07 0.00112235 -0.6525 -1.70323e-07 0.00112274 -0.64875 -1.76691e-07 0.00112314 -0.645 -1.83404e-07
0.00112355 -0.64125 -1.90314e-07 0.00112397 -0.6375 -1.9723e-07 0.00112439 -0.63375 -2.04141e-07 0.0011248
-0.63 -2.11238e-07 0.00112523 -0.62625 -2.18503e-07 0.00112567 -0.6225 -2.25868e-07 0.00112611 -0.61875
-2.33239e-07 0.00112655 -0.615 -2.40606e-07 0.001127 -0.61125 -2.48169e-07 0.00112745 -0.6075 -2.55909e-07
0.00112792 -0.60375 -2.63755e-07 0.0011284 -0.6 -2.71608e-07 0.00112887 -0.59625 -2.79458e-07 0.00112935
-0.5925 -2.87337e-07 0.00112983 -0.58875 -2.95224e-07 0.0011303 -0.585 -3.03325e-07 0.00113079 -0.58125
-3.1179e-07 0.00113128 -0.5775 -3.20448e-07 0.0011318 -0.57375 -3.29303e-07 0.00113231 -0.57 -3.38166e-07
0.00113282 -0.56625 -3.47223e-07 0.00113334 -0.5625 -3.56604e-07 0.00113388 -0.55875 -3.66096e-07 0.00113443
-0.555 -3.75832e-07 0.00113498 -0.55125 -3.85579e-07 0.00113553 -0.5475 -3.95397e-07 0.00113609 -0.54375
-4.05328e-07 0.00113667 -0.54 -4.15363e-07 0.00113727 -0.53625 -4.25443e-07 0.00113786 -0.5325 -4.35536e-07
0.00113846 -0.52875 -4.45569e-07 0.00113906 -0.525 -4.55493e-07 0.00113969 -0.52125 -4.64981e-07 0.00114033
-0.5175 -4.74837e-07 0.00114097 -0.51375 -4.84707e-07 0.00114161 -0.51 -4.94662e-07 0.00114227 -0.50625
-5.04753e-07 0.00114294 -0.5025 -5.14585e-07 0.00114363 -0.49875 -5.24863e-07 0.00114432 -0.495 -5.35156e-07
0.00114501 -0.49125 -5.45801e-07 0.00114571 -0.4875 -5.57013e-07 0.00114644 -0.48375 -5.68792e-07 0.00114718
-0.48 -5.80639e-07 0.00114792 -0.47625 -5.92505e-07 0.00114866 -0.4725 -6.04813e-07 0.00114941 -0.46875
-6.17823e-07 0.00115019 -0.465 -6.31543e-07 0.00115098 -0.46125 -6.45342e-07 0.00115177 -0.4575 -6.59164e-07
0.00115256 -0.45375 -6.73243e-07 0.00115336 -0.45 -6.87717e-07 0.00115418 -0.44625 -7.026e-07 0.00115502
-0.4425 -7.17574e-07 0.00115586 -0.43875 -7.32576e-07 0.00115669 -0.435 -7.47739e-07 0.00115754 -0.43125
-7.63139e-07 0.0011584 -0.4275 -7.7789e-07 0.00115928 -0.42375 -7.93654e-07 0.00116016 -0.42 -8.09451e-07
0.00116103 -0.41625 -8.25538e-07 0.00116192 -0.4125 -8.42057e-07 0.00116281 -0.40875 -8.5792e-07 0.00116372
-0.405 -8.7503e-07 0.00116462 -0.40125 -8.92178e-07 0.00116552 -0.3975 -9.09682e-07 0.00116643 -0.39375
-9.27712e-07 0.00116734 -0.39 -9.46329e-07 0.00116825 -0.38625 -9.65084e-07 0.00116915 -0.3825 -9.83884e-07
0.00117006 -0.37875 -1.00301e-06 0.00117097 -0.375 -1.02259e-06 0.00117186 -0.37125 -1.04274e-06 0.00117274
-0.3675 -1.06304e-06 0.00117362 -0.36375 -1.08339e-06 0.0011745 -0.36 -1.10406e-06 0.00117536 -0.35625
-1.12517e-06 0.00117619 -0.3525 -1.14468e-06 0.00117698 -0.34875 -1.16654e-06 0.00117778 -0.345 -1.18846e-06
0.00117858 -0.34125 -1.21075e-06 0.00117935 -0.3375 -1.23354e-06 0.00118005 -0.33375 -1.257e-06 0.0011807
-0.33 -1.28067e-06 0.00118134 -0.32625 -1.30441e-06 0.00118199 -0.3225 -1.32862e-06 0.00118257 -0.31875
-1.35347e-06 0.00118306 -0.315 -1.37921e-06 0.00118345 -0.31125 -1.40518e-06 0.00118384 -0.3075 -1.43123e-06
0.00118423 -0.30375 -1.45766e-06 0.00118452 -0.3 -1.48462e-06 0.00118466 -0.29625 -1.50819e-06 0.00118465
-0.2925 -1.53667e-06 0.00118442 -0.28875 -1.56569e-06 0.00118397 -0.285 -1.59511e-06 0.00118336 -0.28125
-1.62459e-06 0.00118275 -0.2775 -1.64931e-06 0.00118214 -0.27375 -1.68026e-06 0.00118121 -0.27 -1.71203e-06
0.00117996 -0.26625 -1.74438e-06 0.00117849 -0.2625 -1.77681e-06 0.00117702 -0.25875 -1.8033e-06 0.00117555
-0.255 -1.83761e-06 0.00117361 -0.25125 -1.87302e-06 0.00117121 -0.2475 -1.90919e-06 0.0011685 -0.24375
-1.94542e-06 0.0011658 -0.24 -1.98235e-06 0.0011631 -0.23625 -2.02073e-06 0.00115978 -0.2325 -2.0603e-06
0.00115585 -0.22875 -2.10065e-06 0.00115152 -0.225 -2.14104e-06 0.00114721 -0.22125 -2.17226e-06 0.00114292
-0.2175 -2.2148e-06 0.0011378 -0.21375 -2.25843e-06 0.00113186 -0.21 -2.30269e-06 0.00112544 -0.20625
-2.34695e-06 0.00111907 -0.2025 -2.37992e-06 0.00111274 -0.19875 -2.42688e-06 0.00110525 -0.195 -2.47535e-06
0.00109659 -0.19125 -2.52453e-06 0.00108738 -0.1875 -2.57362e-06 0.00107826 -0.18375 -2.62378e-06 0.00106923
-0.18 -2.67599e-06 0.00105867 -0.17625 -2.72999e-06 0.00104661 -0.1725 -2.78457e-06 0.00103404 -0.16875
-2.83891e-06 0.00102164 -0.165 -2.89437e-06 0.00100941 -0.16125 -2.95184e-06 0.000995379 -0.1575 -3.01109e-06
0.000979579 -0.15375 -3.0705e-06 0.000963539 -0.15 -3.1295e-06 0.000947791 -0.14625 -3.18958e-06 0.000932326
-0.1425 -3.25002e-06 0.000914822 -0.13875 -3.31072e-06 0.00089534 -0.135 -3.37091e-06 0.000876117 -0.13125
-3.43056e-06 0.000857343 -0.1275 -3.46715e-06 0.000839004 -0.12375 -3.52864e-06 0.000818572 -0.12 -3.59101e-06
0.000796458 -0.11625 -3.65265e-06 0.000774982 -0.1125 -3.7136e-06 0.000754121 -0.10875 -3.74868e-06 0.000733851
-0.105 -3.80847e-06 0.000711538 -0.10125 -3.86709e-06 0.000688245 -0.0975 -3.92499e-06 0.000665744 -0.0937499
-3.9822e-06 0.000644004 -0.0899999 -4.03987e-06 0.00062299 -0.0862499 -4.09888e-06 0.000600379 -0.0824999 -4.15816e-06
0.000577679 -0.0787499 -4.21664e-06 0.000555845 -0.0749999 -4.27437e-06 0.000534843 -0.0712499 -4.33216e-06 0.000514631
-0.0674999 -4.39723e-06 0.000494262 -0.0637499 -4.46278e-06 0.000474534 -0.0599999 -4.52737e-06 0.000455583 -0.0562499
-4.59102e-06 0.00043738 -0.0524999 -4.62315e-06 0.000419885 -0.0487498 -4.69011e-06 0.000404732 -0.0449998 -4.75622e-06
0.00039011 -0.0412498 -4.82149e-06 0.000376002 -0.0374998 -4.88598e-06 0.000362391 -0.0337498 -4.9497e-06 0.000349253
-0.0299998 -5.01775e-06 0.000340448 -0.0262498 -5.0853e-06 0.000331856 -0.0224998 -5.15237e-06 0.000323474 -0.0187499
-5.21898e-06 0.000315296 -0.0149999 -5.28447e-06 0.000307318 -0.0112499 -5.36204e-06 0.000303626 -0.0074999 -5.43949e-06
0.000299976 -0.00374991 -5.51684e-06 0.000296369 6.11918e-08 -5.59408e-06 0.000292803 0.00375005 -5.6401e-06 0.000289283
0.00750005 -5.71293e-06 0.000285811 0.01125 -5.78561e-06 0.00028238 0.015 -5.85812e-06 0.000278989 0.01875
-5.93049e-06 0.000275637 0.0225 -5.98912e-06 0.00027441 0.02625 -6.07374e-06 0.000273191 0.03 -6.15849e-06
0.000271978 0.03375 -6.24336e-06 0.000270769 0.0375 -6.32836e-06 0.000269566 0.04125 -6.39732e-06 0.000268942
0.045 -6.49083e-06 0.000268321 0.04875 -6.58456e-06 0.000267701 0.0525 -6.67849e-06 0.000267083 0.05625
-6.77264e-06 0.000266466 0.06 -6.87883e-06 0.00026614 0.06375 -6.98317e-06 0.000265817 0.0675 -7.08778e-06
0.000265493 0.07125 -7.19265e-06 0.00026517 0.075 -7.29778e-06 0.000264848 0.07875 -7.39192e-06 0.000264655
0.0825 -7.50919e-06 0.000264464 0.08625 -7.62676e-06 0.000264273 0.09 -7.74464e-06 0.000264082 0.09375
-7.86282e-06 0.000263892 0.0975 -7.97111e-06 0.000263741 0.10125 -8.10349e-06 0.000263591 0.105 -8.2362e-06
0.000263442 0.10875 -8.36926e-06 0.000263292 0.1125 -8.50266e-06 0.000263143 0.11625 -8.65284e-06 0.000262999
[...]
POINT_DATA 20955
FIELD attributes 3
age 1 20955 float
0 7.30904e-05 0.000146185 0.000219283 0.000292385 0.000365491 0.000554569 0.000743647 0.000932724 0.00112182 0.00131095
0.00150011 0.00168928 0.00187844 0.00206763 0.00225685 0.0024461 0.00263536 0.00282461 0.00301389 0.00320321
0.00339256 0.00358192 0.00377127 0.00396065 0.00415007 0.00433953 0.00452899 0.00471846 0.00490794 0.00509747
0.00528705 0.00547667 0.00566634 0.00585603 0.00604573 0.00623542 0.00642517 0.00661497 0.00680479 0.00699462
0.00718445 0.00737433 0.00756426 0.00775423 0.00794419 0.00813415 0.00832418 0.00851426 0.00870437 0.00889449
0.0090846 0.00927478 0.00946501 0.00965529 0.00984556 0.0100358 0.0102262 0.0104166 0.010607 0.0107975
0.0109486 0.0110998 0.011251 0.0114023 0.0115033 0.0115527 0.0116021 0.0116515 0.0117009 0.0117503
0.0119409 0.0121316 0.0123224 0.0125132 0.0127041 0.0128949 0.0130858 0.0132768 0.0134678 0.0136589
0.0138499 0.014041 0.0142322 0.0144235 0.0146148 0.014806 0.0149974 0.0151888 0.0153804 0.0155719
0.0157634 0.015955 0.0161467 0.0163385 0.0165303 0.016722 0.0169139 0.0171059 0.017298 0.01749
0.0176821 0.0178743 0.0180666 0.0182589 0.0184513 0.0186437 0.0188362 0.0190288 0.0192215 0.0194142
0.0196069 0.0197998 0.0199928 0.0201858 0.0203789 0.020572 0.020765 0.0209581 0.0211513 0.0213446
0.0215381 0.0217316 0.021925 0.0221186 0.0223124 0.0225063 0.0227002 0.0228941 0.0230881 0.0232824
0.0234767 0.0236712 0.0238656 0.0240601 0.0242548 0.0244497 0.0246447 0.0248396 0.0250347 0.02523
0.0254255 0.025621 0.0258165 0.0260122 0.0262081 0.0264043 0.0266005 0.0267966 0.026993 0.0271896
0.0273865 0.0275834 0.0277803 0.0279774 0.0281748 0.0283724 0.0285701 0.0287678 0.0289657 0.029164
0.0293625 0.0295611 0.0297597 0.0299585 0.0301577 0.0303573 0.0305568 0.0307564 0.0309562 0.0311565
0.0313571 0.0315577 0.0317584 0.0319593 0.0321607 0.0323626 0.0325644 0.0327662 0.0329684 0.0331711
0.0333742 0.0335773 0.0337805 0.033984 0.034188 0.0343926 0.0345971 0.0348017 0.0350067 0.0352122
0.0354183 0.0356243 0.0358304 0.0360369 0.036244 0.0364517 0.0366599 0.0368688 0.0370781 0.0372874
0.0374967 0.0377066 0.0379171 0.038128 0.0383388 0.0385497 0.0387611 0.038973 0.0391854 0.0393976
0.0396098 0.0398225 0.0400357 0.0402491 0.0404624 0.0406756 0.0408891 0.0411029 0.0413169 0.0415307
0.0417443 0.041958 0.0421717 0.0423854 0.0425988 0.0428119 0.0430247 0.0432371 0.0434492 0.043661
0.0438724 0.044083 0.0442927 0.0445019 0.0447106 0.044919 0.045126 0.0453315 0.0455365 0.0457411
0.0459452 0.0461473 0.0463475 0.0465473 0.0467468 0.0469459 0.0471422 0.0473368 0.0475311 0.0477252
0.047919 0.0481096 0.0482988 0.0484879 0.048677 0.048866 0.0490513 0.0492362 0.0494211 0.0496062
0.0497914 0.0499732 0.0501552 0.0503374 0.0505198 0.0507024 0.0508829 0.0510635 0.0512444 0.0514253
0.0516065 0.0517869 0.0519674 0.052148 0.0523287 0.0525095 0.0526903 0.0528712 0.0530521 0.0532332
0.0534143 0.0535955 0.0537767 0.0539579 0.0541392 0.0543207 0.0545023 0.0546838 0.0548654 0.055047
0.0552289 0.0554108 0.0555928 0.0557747 0.0559566 0.0561389 0.0563211 0.0565034 0.0566856 0.0568678
0.0570504 0.057233 0.0574155 0.0575981 0.0577806 0.0579635 0.0581463 0.0583292 0.058512 0.0586949
0.058878 0.0590612 0.0592443 0.0594274 0.0596106 0.0597941 0.0599775 0.0601609 0.0603444 0.0605278
0.0607116 0.0608953 0.0610791 0.0612628 0.0614466 0.0616307 0.0618147 0.0619987 0.0621828 0.0623668
0.0625512 0.0627355 0.0629198 0.0631041 0.0632885 0.0634731 0.0636576 0.0638422 0.0640268 0.0642114
0.0643963 0.0645811 0.0647659 0.0649507 0.0651356 0.0653206 0.0655057 0.0656907 0.0658758 0.0660609
0.0662461 0.0664314 0.0666167 0.0668019 0.0669872 0.0671727 0.0673583 0.0675439 0.0677295 0.0679151
0.0681007 0.0682865 0.0684722 0.068658 0.0688437 0.0690295 0.0692154 0.0694013 0.0695872 0.0697731
0.069959 0.0701451 0.0703311 0.0705171 0.0707031 0.0708892 0.0710753 0.0712615 0.0714476 0.0716337
0.0718199 0.0720061 0.0721923 0.0723786 0.0725648 0.072751 0.0729373 0.0731236 0.07331 0.0734963
0.0736826 0.073869 0.0740553 0.0742417 0.0744281 0.0746145 0.0748009 0.0749873 0.0751737 0.0753602
0.0755466 0.0757331 0.0759195 0.076106 0.0762924 0.0764789 0.0766654 0.0768518 0.0770383 0.0772248
0.0774113 0.0775977 0.0777842 0.0779707 0.0781572 0.0783437 0.0785301 0.0787166 0.0789031 0.0790896
0.0792761 0.0794626 0.079649 0.0798355 0.080022 0.0802085 0.080395 0.0805815 0.080768 0.0809545
0.0811411 0.0813276 0.0815141 0.0817007 0.0818872 0.0820738 0.0822604 0.0824469 0.0826335 0.08282
0.0830066 0.0831932 0.0833799 0.0835665 0.0837531 0.0839398 0.0841265 0.0843131 0.0844998 0.0846865
0.0848733 0.08506 0.0852468 0.0854336 0.0856203 0.0858072 0.085994 0.0861808 0.0863677 0.0865545
0.0867414 0.0869284 0.0871153 0.0873022 0.0874891 0.0876761 0.0878631 0.0880501 0.0882371 0.088424
0.0886111 0.0887981 0.0889852 0.0891722 0.0893593 0.0895464 0.0897335 0.0899206 0.0901077 0.0902949
0.090482 0.0906692 0.0908564 0.0910435 0.0912307 0.0914179 0.0916051 0.0917923 0.0919796 0.0921668
0.0923541 0.0925413 0.0927286 0.0929159 0.0931031 0.0932904 0.0934778 0.0936651 0.0938524 0.0940397
0.0942271 0.0944144 0.0946018 0.0947892 0.0949765 0.0951639 0.0953514 0.0955388 0.0957262 0.0959136
0.0961011 0.0962886 0.0964761 0.0966636 0.096851 0.0970386 0.0972263 0.097414 0.0976017 0.0977894
0.097977 0.0981649 0.0983528 0.0985407 0.0987286 0.0989165 0.0991046 0.0992928 0.099481 0.0996692
0.0998574 0.100046 0.100235 0.100423 0.100612 0.1008 0.10099 0.101179 0.101368 0.101557
0.101698 0.101839 0.10198 0.102121 0.102505 0.102535 0.102565 0.102596 0.102626 0.103085
0.103158 0.103232 0.103306 0.10338 0.103453 0.103643 0.103833 0.103997 0.104186 0.104401
0.104591 0.10478 0.104969 0.105158 0.105348 0.105537 0.105725 0.105914 0.106103 0.106292
0.10648 0.106669 0.106857 0.107045 0.107233 0.107422 0.10761 0.107798 0.107986 0.108174
0.108361 0.108549 0.108737 0.108924 0.109112 0.1093 0.109487 0.109675 0.109863 0.11005
0.110238 0.110425 0.110613 0.1108 0.110988 0.111175 0.111363 0.11155 0.111738 0.111925
0.112113 0.1123 0.112488 0.112675 0.112863 0.11305 0.113238 0.113425 0.113613 0.1138
0.113988 0.114175 0.114363 0.11455 0.114738 0.114925 0.115113 0.1153 0.115488 0.115676
0.115863 0.116051 0.116238 0.116426 0.116614 0.116801 0.116989 0.117176 0.117364 0.117552
0.117739 0.117927 0.118114 0.118302 0.11849 0.118677 0.118865 0.119053 0.11924 0.119428
0.119615 0.119803 0.119991 0.120178 0.120366 0.120554 0.120741 0.120929 0.121117 0.121304
0.121492 0.12168 0.121867 0.122055 0.122242 0.12243 0.122618 0.122805 0.122993 0.123181
0.123368 0.123556 0.123744 0.123931 0.124119 0.124307 0.124494 0.124682 0.124869 0.125057
0.125245 0.125432 0.12562 0.125808 0.125995 0.126183 0.12637 0.126558 0.126746 0.126933
0.127121 0.127309 0.127496 0.127684 0.127871 0.128059 0.128247 0.128434 0.128622 0.128809
0.128997 0.129185 0.129372 0.12956 0.129748 0.129935 0.130123 0.13031 0.130498 0.130686
0.130873 0.131061 0.131248 0.131436 0.131624 0.131811 0.131999 0.132186 0.132374 0.132562
0.132749 0.132937 0.133124 0.133312 0.1335 0.133687 0.133875 0.134062 0.13425 0.134438
0.134625 0.134813 0.135 0.135188 0.135375 0.135563 0.135751 0.135938 0.136126 0.136313
0.136501 0.136689 0.136876 0.137064 0.137251 0.137439 0.137627 0.137814 0.138002 0.138189
0.138377 0.138565 0.138752 0.13894 0.139127 0.139315 0.139502 0.13969 0.139878 0.140065
0.140253 0.14044 0.140628 0.140816 0.141003 0.141191 0.141378 0.141566 0.141754 0.141941
0.142129 0.142316 0.142504 0.142692 0.142879 0.143067 0.143254 0.143442 0.143629 0.143817
0.144005 0.144192 0.14438 0.144567 0.144755 0.144943 0.14513 0.145318 0.145505 0.145693
0.145881 0.146068 0.146256 0.146443 0.146631 0.146819 0.147006 0.147194 0.147381 0.147569
0.147757 0.147944 0.148132 0.148319 0.148507 0.148695 0.148882 0.14907 0.149257 0.149445
0.149633 0.14982 0.150008 0.150195 0.150383 0.150571 0.150758 0.150946 0.151133 0.151321
0.151696 0.152071 0.152447 0.152822 0.153197 0.153947 0.154698 0.155448 0.156198 0.156948
0.158449 0.159949 0.161449 0.162949 0.164449 0.165949 0.167449 0.168949 0.170449 0.17195
0.17495 0.17795 0.18095 0.18395 0.18695 0.192951 0.198951 0.204951 0.210951 0.216951
0.222951 0.228951 0.234951 0.240951 0.246951 0.252951 0.258951 0.264951 0.270952 0.276952
0.282952 0.288952 0.294952 0.300952 0.306952 0.312952 0.318952 0.324952 0.330952 0.336952
0.342952 0.348952 0.354952 0.360952 0.366952 0.372952 0.378952 0.384952 0.390952 0.396952
0.402953 0.408966 0.414994 0.421035 0.427091 0 7.3866e-05 0.000147736 0.000221611 0.00029549
0.000369373 0.000560464 0.000751593 0.000942758 0.00113396 0.0013252 0.00151648 0.00170779 0.00189915 0.00209054
0.00228198 0.00247345 0.00266497 0.00285652 0.00304812 0.00323976 0.00343144 0.00362317 0.00381494 0.00400676
0.00419862 0.00439052 0.00458248 0.00477448 0.00496653 0.00515862 0.00535077 0.00554296 0.00573521 0.0059275
0.00611985 0.00631225 0.00650471 0.00669722 0.00688978 0.0070824 0.00727507 0.0074678 0.00766059 0.00785344
0.00804635 0.00823932 0.00843235 0.00862544 0.00881859 0.00901181 0.00906424 0.00911667 0.00916911 0.00922155
0.00927188 0.00941322 0.0095546 0.00969602 0.00983747 0.00997896 0.0101726 0.0103663 0.01056 0.0107539
0.0109478 0.0111418 0.0113358 0.01153 0.0117242 0.0119185 0.0121128 0.0123073 0.0125018 0.0126964
0.0128911 0.0130859 0.0132808 0.0134758 0.0136708 0.013866 0.0140612 0.0142565 0.014452 0.0146475
0.0148431 0.0150388 0.0152347 0.0154306 0.0156266 0.0158228 0.016019 0.0162154 0.0164118 0.0166084
0.0168051 0.0170019 0.0171988 0.0173959 0.017593 0.0177903 0.0179877 0.0181853 0.0183829 0.0185807
0.0187787 0.0189767 0.019175 0.0193733 0.0195718 0.0197705 0.0199693 0.0201683 0.0203674 0.0205667
0.0207661 0.0209657 0.0211655 0.0213655 0.0215656 0.0217659 0.0219664 0.0221671 0.0223681 0.0225692
0.0227705 0.022972 0.0231737 0.0233756 0.0235778 0.0237802 0.0239828 0.0241857 0.0243888 0.0245921
0.0247957 0.0249995 0.0252036 0.025408 0.0256126 0.0258175 0.0260227 0.0262282 0.0264339 0.02664
0.0268463 0.027053 0.02726 0.0274673 0.0276749 0.0278829 0.0280911 0.0282998 0.0285088 0.0287181
0.0289279 0.029138 0.0293484 0.0295593 0.0297706 0.0299823 0.0301944 0.0304069 0.0306199 0.0308333
0.0310472 0.0312615 0.0314763 0.0316916 0.0319075 0.0321238 0.0323406 0.032558 0.0327759 0.0329944
0.0332135 0.0334331 0.0336533 0.0338742 0.0340957 0.0343179 0.0345407 0.0347642 0.0349884 0.0352133
0.0354389 0.0356653 0.0358924 0.0361204 0.0363491 0.0365787 0.0368091 0.0370404 0.0372726 0.0375057
0.0377397 0.0379746 0.0382106 0.0384475 0.0386854 0.0389244 0.0391645 0.0394057 0.0396481 0.0398916
0.0401362 0.040382 0.040629 0.0408772 0.0411267 0.0413775 0.0416297 0.0418831 0.042138 0.0423943
0.042652 0.0429109 0.0431711 0.0434326 0.0436954 0.0439601 0.044226 0.0444932 0.0447618 0.0450314
0.0453032 0.0455755 0.0458485 0.0461221 0.0463964 0.0466733 0.046818 0.0469626 0.0471072 0.0472517
0.0473358 0.0474803 0.0476246 0.0477689 0.047913 0.048058 0.0483346 0.0486095 0.0488826 0.0491538
0.0494284 0.0495895 0.0497492 0.0499076 0.0500647 0.0501824 0.0502955 0.0504079 0.0505197 0.0506308
0.0507421 0.0509955 0.0512437 0.0514869 0.0517252 0.05196 0.0519812 0.0520023 0.0520234 0.0520444
0.0520655 0.0522713 0.0524726 0.0526696 0.0528626 0.0530496 0.0531667 0.053282 0.0533955 0.0535076
0.0536488 0.0537217 0.053794 0.0538657 0.0539367 0.0540067 0.0541853 0.0543602 0.0545315 0.0546996
0.054861 0.0550032 0.0551439 0.055283 0.0554205 0.0556456 0.0556605 0.0556754 0.0556903 0.0557052
0.0557221 0.0558569 0.0559912 0.056125 0.0562581 0.05639 0.0565366 0.0566833 0.0568301 0.0569772
0.0571241 0.0572712 0.0574186 0.0575664 0.0577146 0.0578631 0.058012 0.0581614 0.0583111 0.0584612
0.0586118 0.0587627 0.0589139 0.0590655 0.0592174 0.0593698 0.0595225 0.0596755 0.059829 0.0599827
0.0601369 0.0602913 0.0604462 0.0606013 0.0607568 0.0609127 0.0610689 0.0612254 0.0613824 0.0615397
0.0616973 0.0618553 0.0620137 0.0621724 0.0623315 0.062491 0.0626509 0.0628112 0.0629718 0.0631329
0.0632943 0.0634561 0.0636183 0.0637809 0.0639439 0.0641072 0.064271 0.0644352 0.0645997 0.0647647
0.06493 0.0650958 0.0652618 0.0654283 0.0655951 0.0657623 0.0659299 0.0660979 0.0662662 0.0664349
0.066604 0.0667734 0.0669431 0.0671132 0.0672836 0.0674544 0.0676256 0.067797 0.0679689 0.068141
0.0683135 0.0684863 0.0686594 0.0688327 0.0690064 0.0691804 0.0693548 0.0695294 0.0697043 0.0698796
0.0700551 0.0702309 0.0704069 0.0705833 0.0707598 0.0709367 0.0711139 0.0712913 0.071469 0.0716469
0.0718251 0.0720035 0.0721821 0.072361 0.0725401 0.0727194 0.072899 0.0730788 0.0732588 0.0734391
0.0736195 0.0738002 0.073981 0.074162 0.0743432 0.0745246 0.0747062 0.0748879 0.0750699 0.075252
0.0754342 0.0756167 0.0757992 0.0759819 0.0761647 0.0763477 0.0765308 0.0767141 0.0768974 0.0770809
0.0772645 0.0774481 0.0776319 0.0778157 0.0779996 0.0781835 0.0783676 0.0785517 0.0787358 0.07892
0.0791043 0.0792885 0.0794728 0.0796571 0.0798415 0.0800258 0.0802102 0.0803946 0.080579 0.0807633
0.0809477 0.0811321 0.0813165 0.0815009 0.0816852 0.0818696 0.082054 0.0822384 0.0824229 0.0826073
0.0827918 0.0829763 0.0831609 0.0833455 0.0835302 0.083715 0.0838998 0.0840847 0.0842697 0.0844548
0.08464 0.0848253 0.0850107 0.0851962 0.0853819 0.0855677 0.0857536 0.0859396 0.0861258 0.0863121
0.0864985 0.0866851 0.0868718 0.0870586 0.0872456 0.0874328 0.08762 0.0878074 0.0879949 0.0881825
0.0883703 0.0885582 0.0887463 0.0889344 0.0891227 0.0893111 0.0893378 0.0893644 0.0893911 0.0894177
0.0894439 0.0896059 0.089768 0.0899301 0.0900924 0.0902547 0.0904437 0.0906329 0.0908221 0.0910115
0.0912009 0.0913904 0.09158 0.0917697 0.0919595 0.0921493 0.0923393 0.0925293 0.0927195 0.0929097
0.0930999 0.0932903 0.0934806 0.0936711 0.0938616 0.0940522 0.0942428 0.0944336 0.0946244 0.0948153
0.0950063 0.0951973 0.0953884 0.0955796 0.0957708 0.0959622 0.0961536 0.0963451 0.0965367 0.0967284
0.0969201 0.0971119 0.0973038 0.0974958 0.0976879 0.0978801 0.0980725 0.0982649 0.0984575 0.0986502
0.0988431 0.0990361 0.0992292 0.0994226 0.0996162 0.09981 0.100004 0.100198 0.100393 0.100589
0.100784 0.100981 0.101178 0.101375 0.101574 0.101773 0.101971 0.102171 0.102372 0.102573
0.102776 0.10298 0.103185 0.103391 0.103599 0.103808 0.104018 0.104229 0.104442 0.104656
0.10487 0.105087 0.105304 0.105522 0.105741 0.10596 0.10618 0.106399 0.106619 0.106839
0.107058 0.107278 0.107498 0.107718 0.107936 0.108155 0.108187 0.10822 0.108252 0.108285
0.108316 0.1085 0.108684 0.108868 0.109051 0.109235 0.109449 0.109662 0.109874 0.110087
0.110298 0.11051 0.110721 0.110931 0.111142 0.111351 0.111559 0.111767 0.111974 0.11218
0.112386 0.112591 0.112797 0.113002 0.113207 0.113411 0.113614 0.113818 0.114021 0.114223
0.114426 0.114628 0.11483 0.115032 0.115234 0.115436 0.115551 0.115665 0.11578 0.115894
0.116027 0.116111 0.116194 0.116277 0.116361 0.116444 0.116646 0.116848 0.11705 0.117252
0.117454 0.117656 0.117859 0.118062 0.118264 0.118467 0.11867 0.118873 0.119076 0.11928
0.119483 0.119686 0.11989 0.120093 0.120297 0.120501 0.120704 0.120908 0.121112 0.121316
0.12152 0.121724 0.121928 0.122132 0.122336 0.122539 0.122743 0.122947 0.123151 0.123355
0.123559 0.123636 0.123713 0.12379 0.123867 0.123945 0.124071 0.124197 0.124324 0.12445
0.124577 0.12478 0.124983 0.125187 0.12539 0.125593 0.125796 0.125999 0.126202 0.126404
0.126607 0.126809 0.127012 0.127214 0.127417 0.127619 0.127821 0.128022 0.128224 0.128425
0.128627 0.128828 0.12903 0.129231 0.129432 0.129633 0.129834 0.130034 0.130235 0.130435
0.130636 0.130836 0.131036 0.131236 0.131436 0.131636 0.131836 0.132036 0.132235 0.132435
0.132634 0.132833 0.133032 0.133232 0.133431 0.13363 0.133828 0.134027 0.134226 0.134424
0.134623 0.134821 0.13502 0.135218 0.135416 0.135614 0.135813 0.13601 0.136208 0.136406
0.136604 0.136802 0.137 0.137197 0.137395 0.137592 0.13779 0.137987 0.138185 0.138382
0.138579 0.138777 0.138974 0.139171 0.139368 0.139565 0.139762 0.139959 0.140156 0.140353
0.14055 0.140747 0.140944 0.141141 0.141338 0.141535 0.141731 0.141928 0.142125 0.142322
0.142518 0.142715 0.142912 0.143108 0.143305 0.143502 0.143698 0.143895 0.144092 0.144288
0.144485 0.144681 0.144878 0.145075 0.145271 0.145468 0.145664 0.145861 0.146058 0.146254
0.146451 0.146647 0.146844 0.147041 0.147237 0.147434 0.14763 0.147827 0.148024 0.14822
0.148417 0.148613 0.14881 0.149007 0.149204 0.1494 0.149597 0.149794 0.14999 0.150187
0.150384 0.15058 0.150777 0.150974 0.151171 0.151368 0.151564 0.151761 0.151958 0.152155
0.152352 0.152549 0.152745 0.152942 0.153139 0.153336 0.153533 0.15373 0.153927 0.154124
0.154321 0.154518 0.154715 0.154912 0.155109 0.155306 0.155504 0.155701 0.155898 0.156095
0.156292 0.156489 0.156686 0.156884 0.157081 0.157278 0.157673 0.158068 0.158462 0.158857
0.159252 0.159464 0.159675 0.159886 0.160098 0.160308 0.160884 0.161459 0.162031 0.162601
0.163168 0.164713 0.166243 0.167762 0.169281 0.1708 0.172319 0.173835 0.175351 0.176866
0.178381 0.181412 0.184443 0.187473 0.190504 0.193528 0.199551 0.205574 0.211598 0.217621
0.223645 0.229654 0.235664 0.241673 0.247683 0.253692 0.2597 0.265709 0.271717 0.277725
0.283734 0.289742 0.29575 0.301758 0.307766 0.313774 0.319782 0.32579 0.331798 0.337806
0.343814 0.349822 0.35583 0.361838 0.367846 0.373854 0.379861 0.385869 0.391877 0.397885
0.403893 0.4099 0.415922 0.421957 0.428007 0.43407 0 7.38445e-05 0.000147694 0.000221549
0.000295409 0.000369275 0.000560319 0.000751401 0.000942519 0.00113367 0.00132487 0.00151609 0.00170736 0.00189867
0.00209001 0.0022814 0.00247282 0.00266428 0.00285579 0.00304734 0.00323893 0.00343056 0.00362223 0.00381395
0.00400572 0.00419752 0.00438938 0.00458128 0.00477323 0.00496522 0.00515727 0.00534936 0.0055415 0.00573369
0.00592594 0.00611823 0.00631058 0.00650298 0.00669543 0.00688794 0.00708051 0.00727313 0.00746581 0.00765854
0.00785134 0.00804419 0.00823711 0.00843009 0.00862313 0.00881623 0.00900939 0.00920262 0.00939592 0.00958929
0.00978272 0.00997622 0.0100375 0.0100987 0.01016 0.0102213 0.0102805 0.0104133 0.0105461 0.010679
0.0108119 0.0109449 0.0111388 0.0113328 0.0115269 0.0117211 0.0119153 0.0121097 0.0123041 0.0124986
0.0126932 0.0128878 0.0130826 0.0132774 0.0134724 0.0136674 0.0138625 0.0140577 0.0142531 0.0144485
0.014644 0.0148396 0.0150353 0.0152312 0.0154271 0.0156232 0.0158193 0.0160156 0.016212 0.0164085
0.0166052 0.0168019 0.0169988 0.0171959 0.0173931 0.0175904 0.0177879 0.0179855 0.0181832 0.0183811
0.0185792 0.0187775 0.0189758 0.0191744 0.0193731 0.019572 0.0197711 0.0199703 0.0201697 0.0203693
0.0205691 0.0207691 0.0209692 0.0211695 0.02137 0.0215707 0.0217716 0.0219727 0.0221739 0.0223754
0.0225771 0.0227789 0.022981 0.0231833 0.0233857 0.0235884 0.0237914 0.0239945 0.0241978 0.0244014
0.0246052 0.0248093 0.0250135 0.0252181 0.0254228 0.0256279 0.0258332 0.0260387 0.0262445 0.0264506
0.026657 0.0268636 0.0270706 0.0272778 0.0274854 0.0276933 0.0279015 0.02811 0.0283189 0.0285281
0.0287376 0.0289476 0.0291578 0.0293685 0.0295796 0.0297911 0.030003 0.0300223 0.0300416 0.030061
0.0300803 0.0300995 0.0302926 0.0304862 0.0306801 0.0308744 0.0310691 0.0312836 0.0314987 0.0317143
0.0319304 0.032147 0.0323642 0.032582 0.0328003 0.0330192 0.0332388 0.033459 0.0336798 0.0339013
0.0341236 0.0343465 0.0345701 0.0347946 0.0350198 0.0352459 0.0354728 0.0357005 0.0359291 0.0361587
0.0363892 0.0366207 0.0368532 0.0370869 0.0373216 0.0375576 0.0377946 0.0380329 0.0382724 0.0385133
0.0387557 0.0389994 0.0392445 0.0394913 0.0397399 0.0399902 0.0402421 0.0404957 0.0407513 0.041009
0.0412689 0.0415308 0.0417949 0.0420616 0.042331 0.042603 0.0428778 0.043156 0.0434373 0.043722
0.0440102 0.0443021 0.044597 0.0448962 0.0451997 0.0455078 0.0458214 0.0461377 0.0464588 0.0467847
0.0471156 0.047457 0.0476966 0.0479394 0.0481847 0.0484322 0.0484995 0.0486505 0.0488022 0.0489546
0.0491075 0.0492651 0.0496315 0.0500012 0.0503733 0.0507439 0.0508161 0.0508977 0.0509791 0.0510604
0.0511415 0.0512247 0.0514668 0.0517058 0.0519415 0.052174 0.0523117 0.0524918 0.0526692 0.0528438
0.0530157 0.0531963 0.0532472 0.0532979 0.0533483 0.0533984 0.0534456 0.0536472 0.053843 0.0540339