# vtk DataFile Version 2.0
tracks
ASCII
DATASET POLYDATA
POINTS 20385 float
-1.001 1e-07 0.0011 -0.99955 9.90983e-08 0.00110002 -0.9981 9.80921e-08 0.00110004 -0.99665 9.69814e-08
0.00110006 -0.9952 9.57663e-08 0.00110009 -0.99375 9.44466e-08 0.00110012 -0.99 9.07396e-08 0.00110021
-0.98625 8.70538e-08 0.0011003 -0.9825 8.33669e-08 0.00110039 -0.97875 7.89827e-08 0.00110049 -0.975
7.32336e-08 0.00110061 -0.97125 6.61011e-08 0.00110076 -0.9675 5.89836e-08 0.0011009 -0.96375 5.18634e-08
0.00110105 -0.96 4.45152e-08 0.00110119 -0.95625 3.67243e-08 0.00110135 -0.952907 2.93794e-08 0.00110149
-0.949563 2.20359e-08 0.00110163 -0.94622 1.46899e-08 0.00110178 -0.942877 7.26886e-09 0.00110192 -0.939748
1.72779e-17 0.00110206 -0.939298 -1.08764e-09 0.00110208 -0.938849 -2.18152e-09 0.0011021 -0.938399 -3.28165e-09
0.00110211 -0.93795 -4.38802e-09 0.00110213 -0.9375 -5.50065e-09 0.00110215 -0.93375 -1.48339e-08 0.00110232
-0.93 -2.41716e-08 0.00110248 -0.92625 -3.35131e-08 0.00110264 -0.9225 -4.34214e-08 0.00110281 -0.91875
-5.44257e-08 0.00110297 -0.915 -6.65208e-08 0.00110314 -0.91125 -7.86274e-08 0.0011033 -0.9075 -9.0739e-08
0.00110347 -0.90375 -1.02855e-07 0.00110363 -0.9 -1.14974e-07 0.00110379 -0.89625 -1.27084e-07 0.00110396
-0.8925 -1.37479e-07 0.00110412 -0.88875 -1.46143e-07 0.00110428 -0.885 -1.53911e-07 0.00110444 -0.88125
-1.61681e-07 0.0011046 -0.8775 -1.69411e-07 0.00110476 -0.87375 -1.75552e-07 0.00110492 -0.87 -1.80057e-07
0.00110508 -0.86625 -1.83711e-07 0.00110524 -0.8625 -1.87366e-07 0.0011054 -0.85875 -1.90971e-07 0.00110556
-0.855 -1.93496e-07 0.00110572 -0.85125 -1.94885e-07 0.00110588 -0.8475 -1.95681e-07 0.00110604 -0.84375
-1.96478e-07 0.0011062 -0.84 -1.97255e-07 0.00110636 -0.83625 -1.97668e-07 0.00110652 -0.8325 -1.97694e-07
0.00110668 -0.82875 -1.97517e-07 0.00110683 -0.825 -1.9734e-07 0.00110699 -0.82125 -1.97104e-07 0.00110715
-0.8175 -1.97181e-07 0.00110731 -0.81375 -1.97509e-07 0.00110746 -0.81 -1.9797e-07 0.00110762 -0.80625
-1.98431e-07 0.00110777 -0.8025 -1.98831e-07 0.00110793 -0.79875 -1.98948e-07 0.00110808 -0.795 -1.98719e-07
0.00110824 -0.79125 -1.98306e-07 0.0011084 -0.7875 -1.97893e-07 0.00110855 -0.78375 -1.97462e-07 0.00110871
-0.78 -1.96472e-07 0.00110887 -0.77625 -1.94901e-07 0.00110903 -0.7725 -1.93023e-07 0.00110919 -0.76875
-1.91143e-07 0.00110935 -0.765 -1.89247e-07 0.00110951 -0.76125 -1.87588e-07 0.00110968 -0.7575 -1.8615e-07
0.00110984 -0.75375 -1.84828e-07 0.00111001 -0.75 -1.83506e-07 0.00111018 -0.74625 -1.82118e-07 0.00111035
-0.7425 -1.81915e-07 0.00111052 -0.73875 -1.82831e-07 0.0011107 -0.735 -1.84345e-07 0.00111088 -0.73125
-1.85859e-07 0.00111106 -0.7275 -1.87306e-07 0.00111124 -0.72375 -1.90591e-07 0.00111143 -0.72 -1.95645e-07
0.00111162 -0.71625 -2.01649e-07 0.00111182 -0.7125 -2.07657e-07 0.00111202 -0.70875 -2.13587e-07 0.00111221
-0.705 -2.21519e-07 0.00111242 -0.70125 -2.31369e-07 0.00111264 -0.6975 -2.42256e-07 0.00111286 -0.69375
-2.5315e-07 0.00111308 -0.69 -2.64032e-07 0.00111331 -0.68625 -2.76837e-07 0.00111354 -0.6825 -2.91541e-07
0.00111379 -0.67875 -3.07279e-07 0.00111404 -0.675 -3.23028e-07 0.00111429 -0.67125 -3.38764e-07 0.00111455
-0.6675 -3.56276e-07 0.00111482 -0.66375 -3.75534e-07 0.0011151 -0.66 -3.95749e-07 0.00111539 -0.65625
-4.1598e-07 0.00111568 -0.6525 -4.36032e-07 0.00111597 -0.64875 -4.56838e-07 0.00111628 -0.645 -4.78193e-07
0.0011166 -0.64125 -4.99857e-07 0.00111693 -0.6375 -5.21538e-07 0.00111726 -0.63375 -5.43204e-07 0.00111759
-0.63 -5.6396e-07 0.00111794 -0.62625 -5.83755e-07 0.00111831 -0.6225 -6.03027e-07 0.00111868 -0.61875
-6.22316e-07 0.00111906 -0.615 -6.41588e-07 0.00111943 -0.61125 -6.5965e-07 0.00111982 -0.6075 -6.76446e-07
0.00112023 -0.60375 -6.92544e-07 0.00112065 -0.6 -7.08657e-07 0.00112107 -0.59625 -7.24752e-07 0.0011215
-0.5925 -7.40923e-07 0.00112192 -0.58875 -7.57111e-07 0.00112234 -0.585 -7.72291e-07 0.00112277 -0.58125
-7.85657e-07 0.00112322 -0.5775 -7.96733e-07 0.00112369 -0.57375 -8.08326e-07 0.00112416 -0.57 -8.19931e-07
0.00112463 -0.56625 -8.30251e-07 0.00112512 -0.5625 -8.38285e-07 0.00112562 -0.55875 -8.43488e-07 0.00112615
-0.555 -8.49276e-07 0.00112667 -0.55125 -8.5507e-07 0.0011272 -0.5475 -8.59452e-07 0.00112773 -0.54375
-8.61352e-07 0.00112829 -0.54 -8.60744e-07 0.00112887 -0.53625 -8.602e-07 0.00112945 -0.5325 -8.59654e-07
0.00113003 -0.52875 -8.5747e-07 0.00113063 -0.525 -8.52441e-07 0.00113124 -0.52125 -8.43923e-07 0.00113188
-0.5175 -8.36083e-07 0.00113251 -0.51375 -8.28231e-07 0.00113315 -0.51 -8.19224e-07 0.0011338 -0.50625
-8.08245e-07 0.00113448 -0.5025 -7.9463e-07 0.00113517 -0.49875 -7.81706e-07 0.00113587 -0.495 -7.68763e-07
0.00113656 -0.49125 -7.5594e-07 0.00113727 -0.4875 -7.43337e-07 0.001138 -0.48375 -7.3096e-07 0.00113875
-0.48 -7.18613e-07 0.00113951 -0.47625 -7.06246e-07 0.00114026 -0.4725 -6.95077e-07 0.00114103 -0.46875
-6.85923e-07 0.00114181 -0.465 -6.78805e-07 0.00114262 -0.46125 -6.71722e-07 0.00114343 -0.4575 -6.64626e-07
0.00114424 -0.45375 -6.57766e-07 0.00114506 -0.45 -6.51304e-07 0.0011459 -0.44625 -6.45263e-07 0.00114676
-0.4425 -6.39254e-07 0.00114762 -0.43875 -6.33232e-07 0.00114848 -0.435 -6.26974e-07 0.00114935 -0.43125
-6.20339e-07 0.00115024 -0.4275 -6.12603e-07 0.00115115 -0.42375 -6.05647e-07 0.00115205 -0.42 -5.98676e-07
0.00115296 -0.41625 -5.92929e-07 0.00115387 -0.4125 -5.89141e-07 0.00115479 -0.40875 -5.86563e-07 0.00115573
-0.405 -5.84819e-07 0.00115666 -0.40125 -5.8307e-07 0.0011576 -0.3975 -5.83546e-07 0.00115853 -0.39375
-5.87518e-07 0.00115947 -0.39 -5.95054e-07 0.00116042 -0.38625 -6.02652e-07 0.00116136 -0.3825 -6.10268e-07
0.0011623 -0.37875 -6.1998e-07 0.00116324 -0.375 -6.32919e-07 0.00116416 -0.37125 -6.4917e-07 0.00116508
-0.3675 -6.65514e-07 0.001166 -0.36375 -6.81899e-07 0.00116692 -0.36 -6.99583e-07 0.00116782 -0.35625
-7.19217e-07 0.00116869 -0.3525 -7.39519e-07 0.00116953 -0.34875 -7.61326e-07 0.00117037 -0.345 -7.83194e-07
0.00117122 -0.34125 -8.06251e-07 0.00117203 -0.3375 -8.31063e-07 0.00117278 -0.33375 -8.57768e-07 0.00117348
-0.33 -8.84625e-07 0.00117418 -0.32625 -9.11559e-07 0.00117487 -0.3225 -9.40111e-07 0.00117551 -0.31875
-9.71018e-07 0.00117606 -0.315 -1.00448e-06 0.00117651 -0.31125 -1.03813e-06 0.00117696 -0.3075 -1.07188e-06
0.00117741 -0.30375 -1.10395e-06 0.00117776 -0.3 -1.1335e-06 0.00117797 -0.29625 -1.15755e-06 0.00117803
-0.2925 -1.18011e-06 0.00117788 -0.28875 -1.19784e-06 0.0011775 -0.285 -1.21222e-06 0.00117698 -0.28125
-1.22664e-06 0.00117645 -0.2775 -1.2375e-06 0.00117593 -0.27375 -1.25193e-06 0.00117509 -0.27 -1.26589e-06
0.00117393 -0.26625 -1.27953e-06 0.00117256 -0.2625 -1.2932e-06 0.00117119 -0.25875 -1.30261e-06 0.00116982
-0.255 -1.31886e-06 0.00116799 -0.25125 -1.33717e-06 0.0011657 -0.2475 -1.35684e-06 0.00116311 -0.24375
-1.37655e-06 0.00116053 -0.24 -1.39679e-06 0.00115795 -0.23625 -1.42393e-06 0.00115476 -0.2325 -1.45788e-06
0.00115096 -0.22875 -1.49615e-06 0.00114678 -0.225 -1.53444e-06 0.00114261 -0.22125 -1.56626e-06 0.00113846
-0.2175 -1.6106e-06 0.00113349 -0.21375 -1.66024e-06 0.0011277 -0.21 -1.71294e-06 0.00112145 -0.20625
-1.7656e-06 0.00111524 -0.2025 -1.80982e-06 0.00110907 -0.19875 -1.85983e-06 0.00110175 -0.195 -1.90626e-06
0.00109327 -0.19125 -1.95081e-06 0.00108426 -0.1875 -1.99526e-06 0.00107534 -0.18375 -2.04055e-06 0.0010665
-0.18 -2.07945e-06 0.00105614 -0.17625 -2.11177e-06 0.00104427 -0.1725 -2.14139e-06 0.00103191 -0.16875
-2.17094e-06 0.00101971 -0.165 -2.20148e-06 0.00100768 -0.16125 -2.23014e-06 0.00099382 -0.1575 -2.25683e-06
0.000978182 -0.15375 -2.28293e-06 0.000962303 -0.15 -2.30896e-06 0.000946712 -0.14625 -2.33606e-06 0.0009314
-0.1425 -2.36621e-06 0.000914026 -0.13875 -2.39939e-06 0.000894652 -0.135 -2.4326e-06 0.000875537 -0.13125
-2.46559e-06 0.000856868 -0.1275 -2.48219e-06 0.000838631 -0.12375 -2.52238e-06 0.0008183 -0.12 -2.56809e-06
0.00079629 -0.11625 -2.61325e-06 0.000774913 -0.1125 -2.6579e-06 0.000754148 -0.10875 -2.68399e-06 0.000733972
-0.105 -2.73226e-06 0.000711772 -0.10125 -2.7824e-06 0.000688603 -0.0975 -2.83182e-06 0.000666218 -0.0937499
-2.88053e-06 0.000644589 -0.0899999 -2.92948e-06 0.000623683 -0.0862499 -2.98534e-06 0.000601172 -0.0824999 -3.04347e-06
0.00057856 -0.0787499 -3.10057e-06 0.00055681 -0.0749999 -3.15667e-06 0.000535887 -0.0712499 -3.21251e-06 0.000515751
-0.0674999 -3.28043e-06 0.000495434 -0.0637499 -3.34927e-06 0.000475749 -0.0599999 -3.41676e-06 0.000456839 -0.0562499
-3.48294e-06 0.000438672 -0.0524999 -3.52434e-06 0.000421214 -0.0487498 -3.59494e-06 0.000406054 -0.0449998 -3.66433e-06
0.000391425 -0.0412498 -3.73258e-06 0.000377309 -0.0374998 -3.79973e-06 0.000363691 -0.0337498 -3.86596e-06 0.000350548
-0.0299998 -3.93537e-06 0.000341573 -0.0262498 -4.00411e-06 0.00033282 -0.0224998 -4.07219e-06 0.000324284 -0.0187499
-4.13964e-06 0.000315959 -0.0149999 -4.20611e-06 0.000307843 -0.0112499 -4.2838e-06 0.000303894 -0.0074999 -4.3613e-06
0.000299993 -0.00374991 -4.4386e-06 0.000296141 6.11915e-08 -4.51572e-06 0.000292336 0.00375005 -4.56644e-06 0.000288583
0.00750005 -4.64007e-06 0.000284882 0.01125 -4.71347e-06 0.000281227 0.015 -4.78664e-06 0.000277618 0.01875
-4.8596e-06 0.000274054 0.0225 -4.92199e-06 0.00027262 0.02625 -5.00728e-06 0.000271196 0.03 -5.09265e-06
0.00026978 0.03375 -5.17812e-06 0.00026837 0.0375 -5.26368e-06 0.000266968 0.04125 -5.33411e-06 0.000266155
0.045 -5.42687e-06 0.000265346 0.04875 -5.51981e-06 0.000264539 0.0525 -5.61294e-06 0.000263734 0.05625
-5.70627e-06 0.000262932 0.06 -5.80673e-06 0.000262407 0.06375 -5.90567e-06 0.000261884 0.0675 -6.00483e-06
0.000261362 0.07125 -6.10422e-06 0.000260841 0.075 -6.20385e-06 0.000260322 0.07875 -6.2857e-06 0.000259918
0.0825 -6.38958e-06 0.000259515 0.08625 -6.4937e-06 0.000259113 0.09 -6.59806e-06 0.000258712 0.09375
-6.70267e-06 0.000258312 0.0975 -6.78706e-06 0.000257941 0.10125 -6.8945e-06 0.000257572 0.105 -7.00219e-06
0.000257204 0.10875 -7.11013e-06 0.000256837 0.1125 -7.21832e-06 0.000256469 0.11625 -7.3271e-06 0.000256098
[...]
POINT_DATA 20385
FIELD attributes 3
age 1 20385 float
0 7.31876e-05 0.00014638 0.000219576 0.000292776 0.000365981 0.000555314 0.000744648 0.000933981 0.00112333 0.00131272
0.00150215 0.00169157 0.001881 0.00207045 0.00225993 0.0024289 0.00259787 0.00276684 0.00293581 0.003094
0.00311672 0.00313945 0.00316218 0.00318491 0.00320764 0.00339727 0.00358689 0.00377652 0.00396617 0.00415586
0.00434559 0.00453533 0.00472506 0.00491482 0.00510463 0.00529448 0.00548437 0.00567432 0.00586429 0.00605426
0.00624423 0.00643425 0.00662432 0.00681442 0.00700451 0.00719461 0.00738476 0.00757496 0.00776519 0.00795541
0.00814564 0.00833593 0.00852626 0.00871663 0.008907 0.00909736 0.00928779 0.00947827 0.00966878 0.00985929
0.0100498 0.0102404 0.010431 0.0106217 0.0108123 0.011003 0.0111937 0.0113845 0.0115754 0.0117662
0.011957 0.0121479 0.0123389 0.0125299 0.0127209 0.0129119 0.013103 0.0132941 0.0134853 0.0136765
0.0138677 0.014059 0.0142503 0.0144417 0.0146331 0.0148245 0.015016 0.0152075 0.0153992 0.0155908
0.0157824 0.0159741 0.0161659 0.0163578 0.0165497 0.0167415 0.0169335 0.0171256 0.0173177 0.0175098
0.017702 0.0178942 0.0180866 0.018279 0.0184715 0.0186639 0.0188565 0.0190491 0.0192419 0.0194347
0.0196274 0.0198203 0.0200134 0.0202065 0.0203996 0.0205928 0.0207859 0.020979 0.0211723 0.0213656
0.0215592 0.0217527 0.0219463 0.0221399 0.0223337 0.0225277 0.0227217 0.0229157 0.0231098 0.0233041
0.0234985 0.023693 0.0238875 0.0240821 0.0242769 0.0244719 0.024667 0.024862 0.0250572 0.0252526
0.0254482 0.0256439 0.0258395 0.0260353 0.0262313 0.0264276 0.0266239 0.0268203 0.0270167 0.0272135
0.0274105 0.0276076 0.0278046 0.0280019 0.0281994 0.0283973 0.0285952 0.028793 0.0289911 0.0291896
0.0293883 0.0295871 0.0297859 0.0299849 0.0301843 0.030384 0.0305838 0.0307836 0.0309837 0.0311841
0.031385 0.0315859 0.0317867 0.0319879 0.0321896 0.0323916 0.0325937 0.0327958 0.0329982 0.0332011
0.0334045 0.0336079 0.0338114 0.0340151 0.0342194 0.0344243 0.0346291 0.034834 0.0350392 0.035245
0.0354514 0.0356577 0.0358641 0.0360709 0.0362783 0.0364863 0.0366949 0.0369041 0.0371137 0.0373233
0.0375329 0.0377432 0.037954 0.0381652 0.0383764 0.0385876 0.0387994 0.0390117 0.0392244 0.0394371
0.0396496 0.0398627 0.0400762 0.0402901 0.0405038 0.0407173 0.0409313 0.0411456 0.04136 0.0415742
0.0417882 0.0420024 0.0422166 0.0424307 0.0426446 0.0428582 0.0430715 0.0432845 0.0434971 0.0437094
0.0439214 0.0441325 0.0443428 0.0445526 0.044762 0.0449709 0.0451785 0.0453846 0.0455902 0.0457954
0.0460001 0.0462028 0.0464036 0.046604 0.046804 0.0470037 0.0472007 0.0473959 0.0475908 0.0477854
0.0479798 0.048171 0.0483608 0.0485505 0.0487401 0.0489296 0.0491155 0.0493009 0.0494864 0.049672
0.0498576 0.0500399 0.0502224 0.0504051 0.0505879 0.050771 0.0509519 0.051133 0.0513143 0.0514957
0.0516773 0.0518581 0.052039 0.05222 0.052401 0.0525822 0.0527634 0.0529447 0.0531261 0.0533075
0.0534891 0.0536706 0.0538522 0.0540338 0.0542154 0.0543974 0.0545793 0.0547612 0.0549432 0.0551252
0.0553075 0.0554898 0.0556721 0.0558544 0.0560367 0.0562193 0.056402 0.0565846 0.0567672 0.0569498
0.0571328 0.0573157 0.0574986 0.0576816 0.0578645 0.0580477 0.0582309 0.0584142 0.0585974 0.0587806
0.0589641 0.0591476 0.0593312 0.0595147 0.0596982 0.059882 0.0600658 0.0602496 0.0604334 0.0606172
0.0608013 0.0609853 0.0611694 0.0613535 0.0615376 0.0617219 0.0619063 0.0620906 0.062275 0.0624593
0.0626439 0.0628285 0.0630131 0.0631977 0.0633822 0.0635671 0.0637519 0.0639367 0.0641215 0.0643063
0.0644913 0.0646763 0.0648613 0.0650463 0.0652313 0.0654165 0.0656017 0.0657869 0.0659721 0.0661573
0.0663426 0.0665279 0.0667133 0.0668986 0.067084 0.0672695 0.0674551 0.0676407 0.0678263 0.0680119
0.0681976 0.0683833 0.068569 0.0687548 0.0689405 0.0691263 0.0693121 0.069498 0.0696838 0.0698696
0.0700555 0.0702414 0.0704274 0.0706133 0.0707993 0.0709852 0.0711713 0.0713573 0.0715433 0.0717294
0.0719154 0.0721015 0.0722876 0.0724737 0.0726598 0.0728459 0.073032 0.0732182 0.0734043 0.0735905
0.0737767 0.0739628 0.074149 0.0743352 0.0745214 0.0747076 0.0748938 0.07508 0.0752662 0.0754524
0.0756386 0.0758248 0.076011 0.0761972 0.0763834 0.0765697 0.0767559 0.076942 0.0771282 0.0773144
0.0775006 0.0776868 0.077873 0.0780592 0.0782453 0.0784315 0.0786177 0.0788038 0.07899 0.0791761
0.0793623 0.0795484 0.0797345 0.0799207 0.0801068 0.080293 0.0804791 0.0806652 0.0808513 0.0810375
0.0812236 0.0814098 0.0815959 0.081782 0.0819682 0.0821543 0.0823405 0.0825266 0.0827128 0.0828989
0.0830851 0.0832713 0.0834574 0.0836436 0.0838298 0.084016 0.0842022 0.0843884 0.0845746 0.0847608
0.0849471 0.0851333 0.0853196 0.0855058 0.0856921 0.0858783 0.0860646 0.0862509 0.0864372 0.0866234
0.0868097 0.086996 0.0871823 0.0873686 0.0875549 0.0877413 0.0879276 0.0881139 0.0883002 0.0884865
0.0886729 0.0888592 0.0890455 0.0892318 0.0894182 0.0896045 0.0897909 0.0899772 0.0901635 0.0903499
0.0905362 0.0907226 0.0909089 0.0910953 0.0912816 0.091468 0.0916543 0.0918407 0.092027 0.0922134
0.0923998 0.0925861 0.0927725 0.0929589 0.0931452 0.0933316 0.093518 0.0937044 0.0938908 0.0940772
0.0942636 0.09445 0.0946364 0.0948229 0.0950093 0.0951958 0.0953822 0.0955687 0.0957551 0.0959416
0.0961282 0.0963147 0.0965012 0.0966877 0.0968743 0.0970609 0.0972476 0.0974343 0.097621 0.0978078
0.0979945 0.0981813 0.0983681 0.0985549 0.0987418 0.0989286 0.0991154 0.0993022 0.099489 0.0996759
0.0998627 0.100049 0.100236 0.100423 0.100609 0.100796 0.100982 0.101168 0.101355 0.101541
0.101727 0.101913 0.102099 0.102285 0.102471 0.102657 0.102843 0.103028 0.103214 0.1034
0.103586 0.103772 0.103958 0.104144 0.10433 0.104516 0.104702 0.104888 0.105074 0.10526
0.105446 0.105633 0.10582 0.106006 0.106193 0.106379 0.106566 0.106753 0.10694 0.107127
0.107314 0.107501 0.107689 0.107876 0.108064 0.108251 0.108439 0.108627 0.108814 0.109002
0.10919 0.109378 0.109566 0.109755 0.109943 0.110131 0.110319 0.110508 0.110696 0.110885
0.111073 0.111262 0.11145 0.111639 0.111828 0.112016 0.112205 0.112393 0.112582 0.112771
0.112959 0.113148 0.113337 0.113526 0.113714 0.113903 0.114092 0.114281 0.114469 0.114658
0.114847 0.115036 0.115225 0.115413 0.115602 0.115791 0.11598 0.116168 0.116357 0.116546
0.116735 0.116924 0.117112 0.117301 0.11749 0.117679 0.117867 0.118056 0.118245 0.118434
0.118622 0.118811 0.119 0.119189 0.119377 0.119566 0.119755 0.119943 0.120132 0.120321
0.120509 0.120698 0.120887 0.121076 0.121264 0.121453 0.121642 0.12183 0.122019 0.122207
0.122396 0.122585 0.122773 0.122962 0.123151 0.123339 0.123528 0.123716 0.123905 0.124094
0.124282 0.124471 0.124659 0.124848 0.125037 0.125225 0.125414 0.125602 0.125791 0.12598
0.126168 0.126357 0.126545 0.126734 0.126923 0.127111 0.1273 0.127488 0.127677 0.127865
0.128054 0.128243 0.128431 0.12862 0.128808 0.128997 0.129186 0.129374 0.129563 0.129751
0.12994 0.130129 0.130317 0.130506 0.130694 0.130883 0.131072 0.13126 0.131449 0.131637
0.131826 0.132015 0.132203 0.132392 0.13258 0.132769 0.132958 0.133146 0.133335 0.133524
0.133712 0.133901 0.134089 0.134278 0.134467 0.134655 0.134844 0.135032 0.135221 0.13541
0.135598 0.135787 0.135975 0.136164 0.136353 0.136541 0.13673 0.136918 0.137107 0.137295
0.137484 0.137673 0.137861 0.13805 0.138238 0.138427 0.138615 0.138804 0.138992 0.139181
0.139369 0.139558 0.139746 0.139935 0.140123 0.140312 0.1405 0.140689 0.140877 0.141066
0.141254 0.141443 0.141631 0.14182 0.142008 0.142197 0.142385 0.142573 0.142762 0.14295
0.143139 0.143327 0.143516 0.143704 0.143892 0.144081 0.144269 0.144458 0.144646 0.144834
0.145023 0.145211 0.145399 0.145588 0.145776 0.145964 0.146153 0.146341 0.146529 0.146718
0.146906 0.147094 0.147282 0.147471 0.147659 0.147847 0.148035 0.148224 0.148412 0.1486
0.148788 0.148977 0.149165 0.149353 0.149541 0.149729 0.149918 0.150106 0.150294 0.150482
0.15067 0.150859 0.151047 0.151235 0.151423 0.151799 0.152176 0.152552 0.152928 0.153304
0.154055 0.154807 0.155558 0.156309 0.15706 0.158561 0.160062 0.161562 0.163063 0.164563
0.166063 0.167564 0.169064 0.170565 0.172065 0.175066 0.178066 0.181067 0.184068 0.187069
0.193069 0.19907 0.205071 0.211071 0.217072 0.223072 0.229073 0.235073 0.241073 0.247073
0.253074 0.259074 0.265074 0.271075 0.277075 0.283075 0.289075 0.295076 0.301076 0.307076
0.313076 0.319077 0.325077 0.331077 0.337077 0.343078 0.349078 0.355078 0.361078 0.367079
0.373079 0.379079 0.385079 0.39108 0.39708 0.40308 0.409092 0.415115 0.42115 0.427197
0 7.40979e-05 0.000148201 0.000222308 0.000296421 0.000370538 0.000562237 0.000753977 0.000945758 0.00113758
0.00132944 0.00135836 0.00138728 0.0014162 0.00144512 0.00147403 0.00163704 0.00180009 0.00196317 0.00212629
0.00228943 0.00248155 0.00267372 0.00286593 0.00305819 0.00325049 0.00344284 0.00363524 0.00382768 0.00402018
0.00421272 0.00440531 0.00459796 0.00479065 0.0049834 0.0051762 0.00536905 0.00556195 0.00575491 0.00594793
0.006141 0.00633412 0.00652731 0.00672055 0.00691384 0.0071072 0.00730061 0.00749408 0.00768762 0.00788121
0.00807487 0.00826859 0.00846237 0.00865622 0.00885013 0.00904411 0.00923815 0.00943226 0.00962644 0.0098207
0.010015 0.0102094 0.0104039 0.0105985 0.0107931 0.0109878 0.0111826 0.0113775 0.0115725 0.0117676
0.0119627 0.012158 0.0123534 0.0125488 0.0127444 0.01294 0.0131358 0.0133317 0.0135276 0.0137237
0.0139199 0.0141162 0.0143126 0.0145091 0.0147057 0.0149024 0.0150993 0.0152962 0.0154933 0.0156905
0.0158878 0.0160852 0.0162827 0.0164803 0.0166781 0.016876 0.017074 0.0172721 0.0174703 0.0176687
0.0178672 0.0180658 0.0182645 0.0184634 0.0186624 0.0188616 0.0190608 0.0192603 0.0194598 0.0196595
0.0198594 0.0200594 0.0202595 0.0204598 0.0206603 0.0208609 0.0210617 0.0212626 0.0214637 0.021665
0.0218665 0.0220681 0.0222699 0.0224719 0.0226741 0.0228765 0.0230791 0.0232819 0.0234848 0.023688
0.0238915 0.0240951 0.0242989 0.024503 0.0247073 0.0249119 0.0251166 0.0253217 0.025527 0.0257325
0.0259383 0.0261444 0.0263507 0.0265574 0.0267643 0.0269715 0.027179 0.0273868 0.027595 0.0278034
0.0280122 0.0282213 0.0284307 0.0286406 0.0288507 0.0290613 0.0292721 0.0294834 0.0296951 0.0299072
0.0301197 0.0302515 0.0303836 0.0305158 0.0306482 0.030805 0.0308817 0.0309585 0.0310353 0.0311122
0.0311891 0.0314042 0.0316199 0.031836 0.0320526 0.0322698 0.0324875 0.0327057 0.0329245 0.0331439
0.0333638 0.0335843 0.0338055 0.0340273 0.0342497 0.0344728 0.0346965 0.034921 0.0351462 0.0353722
0.0355988 0.0358262 0.0360545 0.0362835 0.0365133 0.036744 0.0369756 0.0372081 0.0374415 0.0376759
0.0379112 0.0381475 0.0383848 0.0386231 0.0388625 0.039103 0.0392769 0.0394514 0.0396265 0.0398022
0.039885 0.0399725 0.0400602 0.040148 0.040236 0.0403241 0.0405716 0.0408204 0.0410705 0.0413219
0.0415747 0.0418289 0.0420845 0.0423416 0.0426001 0.0428601 0.0431214 0.0433841 0.0436481 0.0439136
0.044181 0.0444498 0.0447199 0.0449914 0.0452642 0.0455391 0.0458148 0.0460912 0.0463684 0.0466462
0.0469269 0.0470959 0.047265 0.047434 0.0476028 0.047691 0.0478192 0.0479473 0.0480753 0.0482032
0.0483318 0.0486127 0.0488918 0.0491693 0.0494449 0.0497241 0.0498997 0.0500737 0.0502461 0.050417
0.0505418 0.0506466 0.0507507 0.0508544 0.0509574 0.0510607 0.0513186 0.0515712 0.0518187 0.0520612
0.0523003 0.0523262 0.0523521 0.052378 0.0524037 0.0524296 0.0526341 0.0528343 0.0530304 0.0532225
0.0534087 0.0535294 0.0536481 0.053765 0.0538803 0.0540261 0.0540987 0.0541708 0.0542422 0.0543131
0.0543829 0.0545645 0.0547425 0.0549169 0.055088 0.0552523 0.0553944 0.0555349 0.0556738 0.0558113
0.0560512 0.056061 0.0560708 0.0560807 0.0560905 0.0561011 0.0562441 0.0563864 0.0565282 0.0566693
0.056809 0.0569581 0.0571074 0.0572569 0.0574066 0.0575562 0.057706 0.057856 0.0580065 0.0581573
0.0583085 0.0584601 0.0586121 0.0587645 0.0589174 0.0590707 0.0592243 0.0593782 0.0595326 0.0596873
0.0598424 0.0599979 0.0601538 0.06031 0.0604666 0.0606235 0.0607808 0.0609384 0.0610964 0.0612547
0.0614134 0.0615724 0.0617318 0.0618915 0.0620516 0.062212 0.0623728 0.0625339 0.0626954 0.0628572
0.0630194 0.0631819 0.0633448 0.0635081 0.0636717 0.0638357 0.064 0.0641647 0.0643296 0.064495
0.0646606 0.0648266 0.064993 0.0651596 0.0653266 0.0654939 0.0656615 0.0658294 0.0659976 0.0661661
0.0663349 0.066504 0.0666734 0.066843 0.0670129 0.0671831 0.0673536 0.0675243 0.0676952 0.0678664
0.0680378 0.0682095 0.0683814 0.0685536 0.068726 0.0688986 0.0690715 0.0692446 0.0694178 0.0695914
0.0697651 0.0699391 0.0701132 0.0702877 0.0704623 0.0706371 0.0708121 0.0709873 0.0711627 0.0713383
0.0715141 0.0716901 0.0718663 0.0720427 0.0722193 0.072396 0.0725729 0.07275 0.0729272 0.0731047
0.0732823 0.07346 0.0736379 0.073816 0.0739942 0.0741725 0.074351 0.0745296 0.0747084 0.0748872
0.0750662 0.0752452 0.0754244 0.0756036 0.0757829 0.0759622 0.0761417 0.0763212 0.0765008 0.0766804
0.0768601 0.0770398 0.0772195 0.0773992 0.0775789 0.0777586 0.0779384 0.0781181 0.0782978 0.0784775
0.0786572 0.0788368 0.0790164 0.0791959 0.0793753 0.0795547 0.0797341 0.0799134 0.0800926 0.0802718
0.0804509 0.0806299 0.0808088 0.0809876 0.0811664 0.0813451 0.0815237 0.0817022 0.0818807 0.0820591
0.0822374 0.0824157 0.0825938 0.0827719 0.08295 0.083128 0.0833059 0.0834839 0.0836618 0.0838398
0.0840177 0.0841956 0.0843735 0.0845514 0.0847293 0.0849073 0.0850852 0.0852632 0.0854413 0.0856194
0.0857975 0.0859756 0.0861538 0.0863319 0.0865101 0.0866884 0.0868667 0.0870451 0.0872234 0.0874019
0.0875803 0.0877588 0.0879373 0.0881158 0.0882943 0.0884729 0.0886515 0.0888302 0.0890088 0.0891875
0.0893662 0.0895448 0.0897235 0.0899021 0.0900807 0.0902594 0.0904381 0.0906167 0.0907954 0.0909741
0.0911527 0.0913313 0.09151 0.0916885 0.0918671 0.0920457 0.0922243 0.0924028 0.0925814 0.0927599
0.0929385 0.0931169 0.0932954 0.0934738 0.0936522 0.0938306 0.0940091 0.0941875 0.0943659 0.0945443
0.0947228 0.0949012 0.0950796 0.095258 0.0954364 0.0956148 0.0957933 0.0959718 0.0961503 0.0963289
0.0965076 0.0966862 0.0968649 0.0970436 0.0972224 0.0974013 0.0975803 0.0977594 0.0979385 0.0981179
0.0982973 0.0984768 0.0986564 0.0988363 0.0990162 0.0991964 0.0993767 0.0995573 0.099738 0.0999189
0.1001 0.100282 0.100464 0.100646 0.100828 0.10101 0.101191 0.101371 0.101551 0.101731
0.10191 0.102089 0.102266 0.102443 0.102618 0.102793 0.102901 0.103009 0.103116 0.103222
0.103343 0.103405 0.103467 0.103528 0.10359 0.103652 0.103821 0.103989 0.104157 0.104325
0.104492 0.104659 0.104827 0.104994 0.105161 0.105328 0.105496 0.105664 0.105832 0.106001
0.10617 0.10634 0.106511 0.106683 0.106856 0.10703 0.107205 0.107381 0.107558 0.107737
0.107917 0.108098 0.10828 0.108464 0.108649 0.108835 0.109023 0.109211 0.109401 0.109592
0.109785 0.109978 0.110173 0.110369 0.110565 0.110763 0.110962 0.111162 0.111363 0.111564
0.111766 0.111907 0.112048 0.112189 0.112331 0.112515 0.11257 0.112625 0.11268 0.112735
0.11279 0.112997 0.113204 0.113412 0.113621 0.113829 0.114039 0.114249 0.114459 0.11467
0.114881 0.115092 0.115304 0.115516 0.115728 0.11594 0.116153 0.116366 0.116579 0.116792
0.117006 0.11722 0.117433 0.117647 0.117861 0.118076 0.11829 0.118504 0.118719 0.118933
0.119148 0.119363 0.119577 0.119792 0.120007 0.120221 0.120436 0.120651 0.120866 0.121081
0.121295 0.12151 0.121725 0.12194 0.122154 0.122369 0.122584 0.122798 0.123013 0.123228
0.123442 0.123656 0.123871 0.124085 0.124299 0.124513 0.124727 0.124941 0.125155 0.125369
0.125583 0.125796 0.126009 0.126222 0.126435 0.126648 0.126861 0.127074 0.127286 0.127499
0.127711 0.127923 0.128135 0.128347 0.128558 0.128769 0.128981 0.129192 0.129403 0.129613
0.129824 0.130034 0.130244 0.130454 0.130663 0.130872 0.131082 0.131291 0.131499 0.131708
0.131916 0.132124 0.132332 0.13254 0.132748 0.132955 0.133162 0.133369 0.133576 0.133782
0.133989 0.134195 0.134401 0.134606 0.134812 0.135017 0.135222 0.135427 0.135632 0.135836
0.136041 0.136245 0.136449 0.136653 0.136856 0.13706 0.137263 0.137466 0.137669 0.137871
0.138074 0.138276 0.138478 0.13868 0.138882 0.139084 0.139285 0.139487 0.139688 0.139889
0.14009 0.14029 0.140491 0.140691 0.140892 0.141092 0.141292 0.141491 0.141691 0.141891
0.14209 0.142289 0.142489 0.142688 0.142886 0.143085 0.143284 0.143482 0.143681 0.143879
0.144077 0.144275 0.144473 0.144671 0.144869 0.145067 0.145264 0.145462 0.145659 0.145856
0.146053 0.14625 0.146447 0.146644 0.146841 0.147037 0.147234 0.14743 0.147627 0.147823
0.148019 0.148216 0.148412 0.148608 0.148803 0.148999 0.149195 0.149391 0.149586 0.149782
0.149977 0.150173 0.150368 0.150563 0.150758 0.150953 0.151149 0.151343 0.151538 0.151733
0.151928 0.152123 0.152317 0.152512 0.152707 0.152901 0.153096 0.15329 0.153484 0.153679
0.153873 0.154067 0.154261 0.154455 0.154649 0.154843 0.155037 0.155231 0.155425 0.155619
0.155813 0.1562 0.156587 0.156975 0.157362 0.157749 0.158523 0.159297 0.160069 0.160841
0.161612 0.163154 0.164695 0.166234 0.167772 0.169309 0.170845 0.172379 0.173913 0.175447
0.17698 0.177268 0.177556 0.177844 0.178132 0.17842 0.181195 0.183965 0.186728 0.189485
0.192236 0.198296 0.204356 0.210417 0.216467 0.222506 0.228533 0.23456 0.240587 0.246614
0.252641 0.258665 0.264689 0.270713 0.276737 0.282761 0.288785 0.294808 0.300832 0.306856
0.312879 0.318903 0.324927 0.33095 0.336974 0.342997 0.349021 0.355044 0.361068 0.367091
0.373115 0.379139 0.385162 0.391186 0.397209 0.403233 0.409256 0.415292 0.421338 0.427397
0.433463 0 7.40821e-05 0.00014817 0.000222265 0.000296365 0.000370471 0.000562141 0.000753853 0.000945607
0.0011374 0.00129141 0.00129898 0.00130654 0.00131411 0.00132168 0.00132925 0.00152113 0.00171305 0.00190502
0.00209704 0.00228909 0.0024812 0.00267335 0.00286554 0.00305779 0.00325009 0.00344243 0.00363482 0.00382727
0.00401977 0.00421231 0.00440491 0.00459757 0.00479028 0.00498305 0.00517587 0.00536875 0.00556169 0.00575469
0.00594775 0.00614088 0.00633406 0.0065273 0.00672062 0.006914 0.00710744 0.00730096 0.00749455 0.00768822
0.00788196 0.00807578 0.00826968 0.00846367 0.00865774 0.00885189 0.00904614 0.00924048 0.00943491 0.00962943
0.00982406 0.0100188 0.0102136 0.0104085 0.0106035 0.0107986 0.0109938 0.0111891 0.0113845 0.0115799
0.0117755 0.0119712 0.0121669 0.0123628 0.0125587 0.0127548 0.0129509 0.0131471 0.0133434 0.0135397
0.0137362 0.0139328 0.0141294 0.0143261 0.014523 0.0147199 0.0149169 0.015114 0.0153111 0.0155084
0.0157058 0.0159033 0.0161008 0.0162985 0.0164963 0.0166941 0.0168921 0.0170902 0.0172884 0.0174867
0.0176851 0.0178836 0.0180822 0.018281 0.0184799 0.0186789 0.018878 0.0190773 0.0192767 0.0194762
0.0196758 0.0198756 0.0200756 0.0202756 0.0204759 0.0206763 0.0208768 0.0210775 0.0212783 0.0214794
0.0216805 0.0218819 0.0220834 0.0222851 0.022487 0.0226891 0.0228914 0.0230938 0.0232965 0.0234993
0.0237024 0.0239057 0.0241091 0.0243129 0.0245168 0.024721 0.0249254 0.0249382 0.0249511 0.024964
0.0249768 0.0249896 0.0251815 0.0253735 0.0255658 0.0257584 0.0259511 0.026157 0.0263632 0.0265697
0.0267765 0.0269835 0.0271909 0.0273985 0.0276065 0.0278148 0.0280234 0.0282324 0.0284417 0.0286514
0.0288614 0.0290718 0.0292826 0.0294938 0.0297053 0.0299173 0.0301297 0.0301791 0.0302284 0.0302778
0.0303272 0.0303751 0.0305393 0.0307038 0.0308686 0.0310336 0.0311989 0.0314141 0.0316298 0.031846
0.0320628 0.0322801 0.0324979 0.0327163 0.0329354 0.0331551 0.0333754 0.0335963 0.0338179 0.0340402
0.0342633 0.034487 0.0347115 0.0349369 0.035163 0.03539 0.0356178 0.0358465 0.0360762 0.0363068
0.0365384 0.036771 0.0370046 0.0372394 0.0374753 0.0377125 0.0379508 0.0381903 0.0384312 0.0386734
0.0389171 0.0391623 0.0394089 0.0396573 0.0399074 0.0401593 0.0404128 0.0406682 0.0409256 0.0411851
0.0414468 0.0417107 0.0419768 0.0422455 0.042517 0.0427912 0.0430683 0.0433488 0.0436326 0.0439199
0.0442107 0.0445053 0.044803 0.045105 0.0454116 0.0457228 0.0460398 0.0461078 0.0461761 0.0462447
0.0463134 0.0463879 0.046643 0.0469013 0.0471627 0.0474274 0.0476992 0.0479729 0.0482505 0.0485317
0.0488157 0.0488724 0.0490028 0.0491336 0.0492649 0.0493967 0.049532 0.0499173 0.0503063 0.0506982
0.0510887 0.0511833 0.0512517 0.05132 0.0513882 0.0514562 0.0515258 0.0517855 0.0520419 0.0522948