# vtk DataFile Version 2.0
tracks
ASCII
DATASET POLYDATA
POINTS 20480 float
-1.001 1e-07 0.0011 -0.99955 9.95244e-08 0.00110002 -0.9981 9.90302e-08 0.00110004 -0.99665 9.85173e-08
0.00110007 -0.9952 9.79857e-08 0.0011001 -0.99375 9.74354e-08 0.00110014 -0.99 9.59422e-08 0.00110023
-0.98625 9.44693e-08 0.00110033 -0.9825 9.2996e-08 0.00110043 -0.97875 9.14558e-08 0.00110054 -0.975
8.97849e-08 0.00110067 -0.97125 8.79642e-08 0.00110082 -0.9675 8.61622e-08 0.00110097 -0.96375 8.43596e-08
0.00110113 -0.96 8.25397e-08 0.00110128 -0.95625 8.06868e-08 0.00110144 -0.9525 7.87925e-08 0.00110162
-0.94875 7.69061e-08 0.00110179 -0.945 7.5019e-08 0.00110196 -0.94125 7.30674e-08 0.00110213 -0.9375
7.0991e-08 0.0011023 -0.93375 6.87741e-08 0.00110248 -0.93 6.65722e-08 0.00110266 -0.92625 6.43695e-08
0.00110284 -0.9225 6.21243e-08 0.00110301 -0.91875 5.97976e-08 0.00110319 -0.915 5.73759e-08 0.00110338
-0.91125 5.4967e-08 0.00110356 -0.9075 5.25572e-08 0.00110374 -0.90375 5.02366e-08 0.00110392 -0.9
4.80892e-08 0.00110411 -0.89625 4.6104e-08 0.0011043 -0.8925 4.45929e-08 0.00110449 -0.88875 4.35448e-08
0.00110469 -0.885 4.27375e-08 0.00110488 -0.88125 4.19299e-08 0.00110508 -0.8775 4.11182e-08 0.00110528
-0.87375 4.09785e-08 0.00110548 -0.87 4.15072e-08 0.00110568 -0.86625 4.23857e-08 0.00110589 -0.8625
4.32645e-08 0.00110609 -0.85875 4.414e-08 0.0011063 -0.855 4.57216e-08 0.00110651 -0.85125 4.80059e-08
0.00110672 -0.8475 5.06598e-08 0.00110694 -0.84375 5.3315e-08 0.00110716 -0.84 5.59577e-08 0.00110737
-0.83625 5.9108e-08 0.00110759 -0.8325 6.2752e-08 0.00110782 -0.82875 6.66575e-08 0.00110804 -0.825
7.05649e-08 0.00110827 -0.82125 7.44683e-08 0.0011085 -0.8175 7.84996e-08 0.00110873 -0.81375 8.26524e-08
0.00110896 -0.81 8.68706e-08 0.0011092 -0.80625 9.10908e-08 0.00110944 -0.8025 9.53059e-08 0.00110967
-0.79875 9.94044e-08 0.00110992 -0.795 1.03378e-07 0.00111016 -0.79125 1.07286e-07 0.00111041 -0.7875
1.11196e-07 0.00111066 -0.78375 1.15075e-07 0.0011109 -0.78 1.18819e-07 0.00111116 -0.77625 1.22392e-07
0.00111141 -0.7725 1.25874e-07 0.00111167 -0.76875 1.29359e-07 0.00111193 -0.765 1.32806e-07 0.00111219
-0.76125 1.35996e-07 0.00111245 -0.7575 1.38885e-07 0.00111272 -0.75375 1.41615e-07 0.00111299 -0.75
1.44345e-07 0.00111326 -0.74625 1.47067e-07 0.00111353 -0.7425 1.49363e-07 0.0011138 -0.73875 1.5122e-07
0.00111408 -0.735 1.52839e-07 0.00111436 -0.73125 1.54459e-07 0.00111464 -0.7275 1.56069e-07 0.00111493
-0.72375 1.57268e-07 0.00111521 -0.72 1.58042e-07 0.00111551 -0.71625 1.58584e-07 0.0011158 -0.7125
1.59126e-07 0.0011161 -0.70875 1.59658e-07 0.00111639 -0.705 1.5979e-07 0.00111669 -0.70125 1.59508e-07
0.001117 -0.6975 1.58999e-07 0.00111731 -0.69375 1.58489e-07 0.00111762 -0.69 1.5792e-07 0.00111793
-0.68625 1.56964e-07 0.00111825 -0.6825 1.55559e-07 0.00111857 -0.67875 1.53906e-07 0.0011189 -0.675
1.52251e-07 0.00111923 -0.67125 1.50534e-07 0.00111956 -0.6675 1.48513e-07 0.0011199 -0.66375 1.46123e-07
0.00112024 -0.66 1.43527e-07 0.00112059 -0.65625 1.40929e-07 0.00112094 -0.6525 1.38321e-07 0.00112129
-0.64875 1.35613e-07 0.00112166 -0.645 1.32794e-07 0.00112203 -0.64125 1.29911e-07 0.0011224 -0.6375
1.27026e-07 0.00112278 -0.63375 1.2408e-07 0.00112316 -0.63 1.21356e-07 0.00112354 -0.62625 1.1879e-07
0.00112394 -0.6225 1.16313e-07 0.00112435 -0.61875 1.13835e-07 0.00112476 -0.615 1.11298e-07 0.00112517
-0.61125 1.09141e-07 0.00112559 -0.6075 1.07305e-07 0.00112602 -0.60375 1.0565e-07 0.00112646 -0.6
1.03994e-07 0.0011269 -0.59625 1.02282e-07 0.00112735 -0.5925 1.00626e-07 0.00112779 -0.58875 9.89696e-08
0.00112823 -0.585 9.75645e-08 0.00112868 -0.58125 9.66e-08 0.00112915 -0.5775 9.60733e-08 0.00112964
-0.57375 9.55542e-08 0.00113012 -0.57 9.50345e-08 0.0011306 -0.56625 9.48234e-08 0.00113109 -0.5625
9.51467e-08 0.00113161 -0.55875 9.60023e-08 0.00113213 -0.555 9.6867e-08 0.00113266 -0.55125 9.77326e-08
0.00113319 -0.5475 9.88625e-08 0.00113373 -0.54375 1.00444e-07 0.00113429 -0.54 1.02413e-07 0.00113487
-0.53625 1.04456e-07 0.00113544 -0.5325 1.06502e-07 0.00113602 -0.52875 1.08667e-07 0.00113661 -0.525
1.11034e-07 0.00113722 -0.52125 1.13599e-07 0.00113785 -0.5175 1.16178e-07 0.00113848 -0.51375 1.1876e-07
0.00113911 -0.51 1.21332e-07 0.00113975 -0.50625 1.23885e-07 0.00114041 -0.5025 1.26418e-07 0.00114109
-0.49875 1.28966e-07 0.00114178 -0.495 1.31517e-07 0.00114246 -0.49125 1.34003e-07 0.00114316 -0.4875
1.36379e-07 0.00114387 -0.48375 1.38525e-07 0.00114461 -0.48 1.40806e-07 0.00114535 -0.47625 1.4309e-07
0.00114608 -0.4725 1.45322e-07 0.00114683 -0.46875 1.47469e-07 0.0011476 -0.465 1.49388e-07 0.00114839
-0.46125 1.51465e-07 0.00114918 -0.4575 1.53546e-07 0.00114997 -0.45375 1.55537e-07 0.00115077 -0.45
1.57379e-07 0.00115159 -0.44625 1.58907e-07 0.00115242 -0.4425 1.6062e-07 0.00115326 -0.43875 1.62337e-07
0.0011541 -0.435 1.63773e-07 0.00115495 -0.43125 1.64761e-07 0.00115581 -0.4275 1.65304e-07 0.00115668
-0.42375 1.65862e-07 0.00115756 -0.42 1.66422e-07 0.00115844 -0.41625 1.66643e-07 0.00115932 -0.4125
1.66335e-07 0.00116022 -0.40875 1.65504e-07 0.00116112 -0.405 1.64686e-07 0.00116202 -0.40125 1.63865e-07
0.00116293 -0.3975 1.62859e-07 0.00116383 -0.39375 1.61569e-07 0.00116474 -0.39 1.59757e-07 0.00116565
-0.38625 1.58203e-07 0.00116656 -0.3825 1.56644e-07 0.00116747 -0.37875 1.54976e-07 0.00116838 -0.375
1.53143e-07 0.00116927 -0.37125 1.50895e-07 0.00117015 -0.3675 1.48921e-07 0.00117103 -0.36375 1.4694e-07
0.00117191 -0.36 1.4481e-07 0.00117277 -0.35625 1.42457e-07 0.0011736 -0.3525 1.39898e-07 0.00117441
-0.34875 1.37347e-07 0.00117521 -0.345 1.34788e-07 0.00117601 -0.34125 1.32027e-07 0.00117677 -0.3375
1.28973e-07 0.00117748 -0.33375 1.25357e-07 0.00117813 -0.33 1.22029e-07 0.00117878 -0.32625 1.18692e-07
0.00117943 -0.3225 1.15088e-07 0.00118001 -0.31875 1.11102e-07 0.0011805 -0.315 1.06472e-07 0.0011809
-0.31125 1.0212e-07 0.0011813 -0.3075 9.77536e-08 0.00118169 -0.30375 9.29765e-08 0.00118199 -0.3
8.7611e-08 0.00118214 -0.29625 8.14217e-08 0.00118214 -0.2925 7.47914e-08 0.00118193 -0.28875 6.74561e-08
0.00118149 -0.285 5.96214e-08 0.0011809 -0.28125 5.17678e-08 0.00118031 -0.2775 4.3908e-08 0.00117972
-0.27375 3.56684e-08 0.00117882 -0.27 2.70417e-08 0.00117759 -0.26625 1.81425e-08 0.00117615 -0.2625
9.22557e-09 0.0011747 -0.261725 7.38046e-09 0.00117441 -0.260951 5.52047e-09 0.00117409 -0.260176 3.64538e-09
0.00117375 -0.259401 1.7552e-09 0.0011734 -0.258688 1.87239e-16 0.00117305 -0.2557 -7.40155e-09 0.00117153
-0.252713 -1.50277e-08 0.00116971 -0.249725 -2.28782e-08 0.0011676 -0.246738 -3.07523e-08 0.00116547 -0.24375
-3.86344e-08 0.00116335 -0.24 -4.85509e-08 0.00116068 -0.23625 -5.93333e-08 0.00115741 -0.2325 -7.09787e-08
0.00115351 -0.22875 -8.31743e-08 0.00114923 -0.225 -9.5372e-08 0.00114497 -0.22125 -1.07162e-07 0.00114072
-0.2175 -1.21197e-07 0.00113565 -0.21375 -1.37026e-07 0.00112976 -0.21 -1.53895e-07 0.00112341 -0.20625
-1.70741e-07 0.0011171 -0.2025 -1.86744e-07 0.00111084 -0.19875 -2.06318e-07 0.0011034 -0.195 -2.28555e-07
0.00109481 -0.19125 -2.52101e-07 0.00108568 -0.1875 -2.75558e-07 0.00107663 -0.18375 -2.99054e-07 0.00106767
-0.18 -3.25409e-07 0.00105718 -0.17625 -3.54574e-07 0.00104519 -0.1725 -3.84736e-07 0.0010327 -0.16875
-4.14691e-07 0.00102037 -0.165 -4.44639e-07 0.00100822 -0.16125 -4.77772e-07 0.000994248 -0.1575 -5.14008e-07
0.000978508 -0.15375 -5.50752e-07 0.000962531 -0.15 -5.87109e-07 0.000946844 -0.14625 -6.23367e-07 0.000931442
-0.1425 -6.61906e-07 0.000913988 -0.13875 -7.02628e-07 0.000894546 -0.135 -7.42979e-07 0.000875366 -0.13125
-7.8275e-07 0.000856635 -0.1275 -8.16814e-07 0.00083834 -0.12375 -8.60347e-07 0.000817945 -0.12 -9.07189e-07
0.000795869 -0.11625 -9.53159e-07 0.000774429 -0.1125 -9.98292e-07 0.000753603 -0.10875 -1.03583e-06 0.000733371
-0.105 -1.08213e-06 0.000711095 -0.10125 -1.12912e-06 0.000687846 -0.0975 -1.17508e-06 0.000665385 -0.0937499
-1.22005e-06 0.000643684 -0.0899999 -1.26443e-06 0.000622713 -0.0862499 -1.31354e-06 0.000600133 -0.0824999 -1.36381e-06
0.000577463 -0.0787499 -1.41284e-06 0.000555657 -0.0749999 -1.4607e-06 0.000534682 -0.0712499 -1.50769e-06 0.000514503
-0.0674999 -1.56604e-06 0.000494154 -0.0637499 -1.62498e-06 0.000474446 -0.0599999 -1.68241e-06 0.000455513 -0.0562499
-1.73839e-06 0.000437328 -0.0524999 -1.78135e-06 0.000419856 -0.0487498 -1.84464e-06 0.000404714 -0.0449998 -1.90653e-06
0.000390104 -0.0412498 -1.96706e-06 0.000376006 -0.0374998 -2.02628e-06 0.000362405 -0.0337498 -2.08426e-06 0.000349281
-0.0299998 -2.15102e-06 0.000340445 -0.0262498 -2.21688e-06 0.000331825 -0.0224998 -2.28185e-06 0.000323415 -0.0187499
-2.34597e-06 0.000315212 -0.0149999 -2.40897e-06 0.000307209 -0.0112499 -2.48866e-06 0.000303472 -0.0074999 -2.56803e-06
0.000299779 -0.00374991 -2.64709e-06 0.000296129 6.11911e-08 -2.72583e-06 0.000292522 0.00375005 -2.78894e-06 0.000288959
0.00750005 -2.86501e-06 0.000285442 0.01125 -2.94074e-06 0.000281967 0.015 -3.01612e-06 0.000278532 0.01875
-3.09115e-06 0.000275138 0.0225 -3.1685e-06 0.000273878 0.02625 -3.25962e-06 0.000272624 0.03 -3.35081e-06
0.000271376 0.03375 -3.44207e-06 0.000270134 0.0375 -3.5334e-06 0.000268897 0.04125 -3.62298e-06 0.000268233
0.045 -3.72666e-06 0.000267572 0.04875 -3.83055e-06 0.000266912 0.0525 -3.93464e-06 0.000266254 0.05625
-4.03892e-06 0.000265598 0.06 -4.15824e-06 0.000265226 0.06375 -4.27666e-06 0.000264857 0.0675 -4.39535e-06
0.000264487 0.07125 -4.51432e-06 0.000264118 0.075 -4.63358e-06 0.00026375 0.07875 -4.75259e-06 0.000263511
0.0825 -4.88697e-06 0.000263272 0.08625 -5.02168e-06 0.000263034 0.09 -5.15673e-06 0.000262796 0.09375
-5.29211e-06 0.000262558 0.0975 -5.42564e-06 0.000262359 0.10125 -5.57619e-06 0.00026216 0.105 -5.7271e-06
0.000261961 0.10875 -5.8784e-06 0.000261763 0.1125 -6.03007e-06 0.000261565 0.11625 -6.19568e-06 0.000261368
0.12 -6.3615e-06 0.000261173 0.12375 -6.52775e-06 0.000260978 0.1275 -6.69442e-06 0.000260783 0.13125
[...]
POINT_DATA 20480
FIELD attributes 3
age 1 20480 float
0 7.3117e-05 0.000146238 0.000219363 0.000292492 0.000365625 0.000554773 0.000743921 0.00093307 0.00112224 0.00131144
0.00150067 0.00168991 0.00187915 0.00206841 0.0022577 0.00244703 0.00263636 0.00282569 0.00301504 0.00320444
0.00339387 0.0035833 0.00377273 0.00396219 0.00415168 0.00434122 0.00453076 0.0047203 0.00490987 0.00509948
0.00528913 0.00547883 0.00566858 0.00585836 0.00604813 0.00623791 0.00642774 0.00661762 0.00680752 0.00699743
0.00718734 0.0073773 0.00756731 0.00775736 0.0079474 0.00813745 0.00832755 0.00851771 0.00870791 0.0088981
0.0090883 0.00927855 0.00946887 0.00965922 0.00984958 0.0100399 0.0102303 0.0104208 0.0106114 0.0108019
0.0109924 0.011183 0.0113737 0.0115644 0.0117551 0.0119458 0.0121366 0.0123274 0.0125183 0.0127092
0.0129001 0.0130911 0.0132821 0.0134732 0.0136643 0.0138554 0.0140466 0.0142379 0.0144292 0.0146206
0.0148119 0.0150033 0.0151948 0.0153864 0.0155779 0.0157695 0.0159612 0.0161529 0.0163448 0.0165366
0.0167284 0.0169203 0.0171124 0.0173045 0.0174966 0.0176887 0.0178809 0.0180732 0.0182656 0.018458
0.0186504 0.0188429 0.0190356 0.0192283 0.019421 0.0196138 0.0198066 0.0199996 0.0201927 0.0203858
0.0205789 0.020772 0.0209651 0.0211582 0.0213516 0.021545 0.0217385 0.021932 0.0221256 0.0223193
0.0225133 0.0227072 0.0229011 0.0230951 0.0232893 0.0234837 0.0236781 0.0238725 0.0240671 0.0242618
0.0244567 0.0246516 0.0248466 0.0250416 0.0252369 0.0254324 0.025628 0.0258235 0.0260192 0.0262151
0.0264112 0.0266074 0.0268036 0.0269999 0.0271966 0.0273934 0.0275903 0.0277872 0.0279843 0.0281817
0.0283794 0.0285771 0.0287748 0.0289727 0.029171 0.0293696 0.0295681 0.0297667 0.0299656 0.0301648
0.0303643 0.0305639 0.0307635 0.0309633 0.0311636 0.0313642 0.0315649 0.0317656 0.0319665 0.0321679
0.0323698 0.0325716 0.0327735 0.0329757 0.0331784 0.0333816 0.0335847 0.0337879 0.0339915 0.0341955
0.0344001 0.0346047 0.0348093 0.0350143 0.0352199 0.035426 0.0356321 0.0358382 0.0360448 0.0362519
0.0364596 0.036668 0.0368769 0.0370863 0.0372956 0.037505 0.0377149 0.0379255 0.0381365 0.0383474
0.038391 0.0384346 0.0384782 0.0385218 0.038562 0.0387305 0.0388994 0.0390686 0.0392378 0.039407
0.0396192 0.039832 0.0400453 0.0402588 0.0404722 0.0406854 0.0408991 0.041113 0.0413271 0.041541
0.0417547 0.0419686 0.0421824 0.0423962 0.0426097 0.042823 0.043036 0.0432485 0.0434608 0.0436727
0.0438843 0.044095 0.0443049 0.0445143 0.0447232 0.0449318 0.0451389 0.0453446 0.0455498 0.0457545
0.0459589 0.0461611 0.0463615 0.0465614 0.0467611 0.0469603 0.0471569 0.0473516 0.0475461 0.0477403
0.0479344 0.0481251 0.0483144 0.0485037 0.0486929 0.0488821 0.0490676 0.0492526 0.0494377 0.0496229
0.0498082 0.0499902 0.0501723 0.0503547 0.0505372 0.0507199 0.0509006 0.0510814 0.0512623 0.0514434
0.0516247 0.0518053 0.0519859 0.0521666 0.0523474 0.0525283 0.0527092 0.0528903 0.0530714 0.0532525
0.0534338 0.0536151 0.0537964 0.0539777 0.0541591 0.0543408 0.0545224 0.0547041 0.0548858 0.0550675
0.0552495 0.0554316 0.0556136 0.0557957 0.0559777 0.0561601 0.0563424 0.0565248 0.0567072 0.0568895
0.0570722 0.0572549 0.0574375 0.0576202 0.0578029 0.0579858 0.0581688 0.0583517 0.0585347 0.0587177
0.0589009 0.0590842 0.0592674 0.0594507 0.059634 0.0598175 0.0600011 0.0601846 0.0603682 0.0605517
0.0607356 0.0609195 0.0611033 0.0612872 0.061471 0.0616552 0.0618394 0.0620235 0.0622077 0.0623918
0.0625762 0.0627607 0.0629451 0.0631295 0.063314 0.0634987 0.0636834 0.063868 0.0640527 0.0642374
0.0644224 0.0646073 0.0647922 0.0649772 0.0651621 0.0653473 0.0655324 0.0657175 0.0659027 0.0660879
0.0662732 0.0664586 0.0666439 0.0668293 0.0670146 0.0672002 0.0673858 0.0675715 0.0677572 0.0679429
0.0681286 0.0683144 0.0685002 0.068686 0.0688718 0.0690577 0.0692436 0.0694296 0.0696156 0.0698015
0.0699875 0.0701735 0.0703596 0.0705457 0.0707318 0.0709178 0.071104 0.0712902 0.0714763 0.0716625
0.0718487 0.072035 0.0722212 0.0724075 0.0725938 0.07278 0.0729664 0.0731527 0.0733391 0.0735254
0.0737118 0.0738982 0.0740846 0.074271 0.0744574 0.0746438 0.0748302 0.0750167 0.0752032 0.0753896
0.0755761 0.0757626 0.0759491 0.0761355 0.076322 0.0765085 0.076695 0.0768815 0.077068 0.0772545
0.077441 0.0776275 0.077814 0.0780006 0.0781871 0.0783736 0.0785601 0.0787466 0.0789331 0.0791196
0.0793061 0.0794926 0.0796791 0.0798656 0.0800522 0.0802387 0.0804252 0.0806117 0.0807982 0.0809848
0.0811713 0.0813579 0.0815444 0.081731 0.0819175 0.0821041 0.0822907 0.0824772 0.0826638 0.0828503
0.083037 0.0832236 0.0834102 0.0835968 0.0837834 0.0839701 0.0841567 0.0843434 0.0845301 0.0847167
0.0849035 0.0850902 0.0852769 0.0854636 0.0856504 0.0858372 0.0860239 0.0862107 0.0863975 0.0865843
0.0867711 0.086958 0.0871448 0.0873317 0.0875185 0.0877054 0.0878923 0.0880792 0.0882661 0.088453
0.0886399 0.0888268 0.0890138 0.0892007 0.0893876 0.0895746 0.0897616 0.0899486 0.0901356 0.0903225
0.0905096 0.0906966 0.0908836 0.0910706 0.0912576 0.0914447 0.0916317 0.0918188 0.0920059 0.0921929
0.09238 0.0925671 0.0927542 0.0929413 0.0931284 0.0933155 0.0935027 0.0936898 0.0938769 0.0940641
0.0942512 0.0944384 0.0946256 0.0948128 0.095 0.0951872 0.0953744 0.0955617 0.0957489 0.0959361
0.0961235 0.0963108 0.0964981 0.0966854 0.0968727 0.0970601 0.0972476 0.0974351 0.0976226 0.0978102
0.0979977 0.0981854 0.0983731 0.0985608 0.0987485 0.0989362 0.0991241 0.0993121 0.0995001 0.099688
0.099876 0.100064 0.100252 0.100441 0.100629 0.100817 0.101006 0.101194 0.101383 0.101571
0.101759 0.101948 0.102136 0.102325 0.102513 0.102701 0.10289 0.103078 0.103266 0.103454
0.103642 0.10383 0.104018 0.104206 0.104394 0.104582 0.104769 0.104957 0.105144 0.105332
0.105519 0.105706 0.105894 0.106081 0.106268 0.106455 0.106642 0.106829 0.107016 0.107203
0.107391 0.107578 0.107765 0.107952 0.108139 0.108326 0.108513 0.1087 0.108887 0.109074
0.109261 0.109448 0.109635 0.109822 0.110009 0.110196 0.110384 0.110571 0.110758 0.110945
0.111132 0.11132 0.111507 0.111694 0.111882 0.112069 0.112256 0.112443 0.112631 0.112818
0.113005 0.113193 0.11338 0.113568 0.113755 0.113943 0.11413 0.114318 0.114505 0.114693
0.11488 0.115068 0.115255 0.115443 0.11563 0.115818 0.116006 0.116193 0.116381 0.116569
0.116756 0.116944 0.117132 0.117319 0.117507 0.117695 0.117882 0.11807 0.118258 0.118446
0.118633 0.118821 0.119009 0.119197 0.119384 0.119572 0.11976 0.119947 0.120135 0.120323
0.120511 0.120698 0.120886 0.121074 0.121262 0.12145 0.121637 0.121825 0.122013 0.122201
0.122388 0.122576 0.122764 0.122952 0.123139 0.123327 0.123515 0.123703 0.12389 0.124078
0.124266 0.124454 0.124641 0.124829 0.125017 0.125205 0.125392 0.12558 0.125768 0.125956
0.126143 0.126331 0.126519 0.126706 0.126894 0.127082 0.12727 0.127457 0.127645 0.127833
0.128021 0.128208 0.128396 0.128584 0.128771 0.128959 0.129147 0.129335 0.129522 0.12971
0.129898 0.130086 0.130273 0.130461 0.130649 0.130836 0.131024 0.131212 0.1314 0.131587
0.131775 0.131963 0.13215 0.132338 0.132526 0.132714 0.132901 0.133089 0.133277 0.133464
0.133652 0.13384 0.134028 0.134215 0.134403 0.134591 0.134778 0.134966 0.135154 0.135342
0.135529 0.135717 0.135905 0.136092 0.13628 0.136468 0.136656 0.136843 0.137031 0.137219
0.137406 0.137594 0.137782 0.13797 0.138157 0.138345 0.138533 0.13872 0.138908 0.139096
0.139284 0.139471 0.139659 0.139847 0.140035 0.140222 0.14041 0.140598 0.140786 0.140973
0.141161 0.141349 0.141536 0.141724 0.141912 0.1421 0.142287 0.142475 0.142663 0.142851
0.143038 0.143226 0.143414 0.143602 0.143789 0.143977 0.144165 0.144353 0.14454 0.144728
0.144916 0.145104 0.145291 0.145479 0.145667 0.145855 0.146042 0.14623 0.146418 0.146606
0.146793 0.146981 0.147169 0.147357 0.147544 0.147732 0.14792 0.148108 0.148295 0.148483
0.148671 0.148859 0.149047 0.149234 0.149422 0.14961 0.149798 0.149985 0.150173 0.150361
0.150549 0.150736 0.150924 0.151112 0.1513 0.151675 0.152051 0.152426 0.152802 0.153177
0.153928 0.154679 0.155429 0.15618 0.15693 0.158431 0.159931 0.161431 0.162931 0.164431
0.165932 0.167432 0.168932 0.170432 0.171932 0.174933 0.177933 0.180933 0.183934 0.186934
0.192934 0.198934 0.204935 0.210935 0.216935 0.222935 0.228935 0.234936 0.240936 0.246936
0.252936 0.258936 0.264936 0.270936 0.276936 0.282936 0.288936 0.294937 0.300937 0.306937
0.312937 0.318937 0.324937 0.330937 0.336937 0.342937 0.348937 0.354937 0.360938 0.366938
0.372938 0.378938 0.384938 0.390938 0.396938 0.402938 0.408951 0.414976 0.421015 0.427066
0 7.39282e-05 0.000147861 0.000221798 0.00029574 0.000369686 0.00056094 0.000752232 0.000943563 0.00113493
0.00132634 0.00151778 0.00170927 0.0019008 0.00209236 0.00228397 0.00247561 0.0026673 0.00285904 0.00305081
0.00324263 0.00343449 0.00362639 0.00381835 0.00401034 0.00420239 0.00439448 0.00458661 0.0047788 0.00497104
0.00516332 0.00535566 0.00554804 0.00574048 0.00593297 0.00612551 0.00631811 0.00651076 0.00670347 0.00689623
0.00708905 0.00728192 0.00747486 0.00766785 0.0078609 0.00805402 0.00824719 0.00844043 0.00863373 0.00882709
0.00902053 0.00921402 0.00940758 0.00960121 0.00979491 0.00998867 0.0101825 0.0103764 0.0105704 0.0107645
0.0109586 0.0111528 0.0113471 0.0115414 0.0117358 0.0119304 0.0121249 0.0123196 0.0125144 0.0127092
0.0129041 0.0130992 0.0132942 0.0134894 0.0136847 0.0138801 0.0140755 0.0142711 0.0144667 0.0146625
0.0148583 0.0150543 0.0152503 0.0154464 0.0156427 0.015839 0.0160355 0.0162321 0.0164288 0.0166256
0.0168225 0.0170195 0.0172167 0.017414 0.0176114 0.0178089 0.017863 0.017917 0.0179711 0.0180252
0.0180776 0.0182217 0.0183659 0.0185102 0.0186545 0.0187989 0.0189973 0.0191958 0.0193945 0.0195933
0.0197924 0.0199915 0.0201909 0.0203904 0.0205901 0.0207899 0.02099 0.0211902 0.0213906 0.0215912
0.021792 0.0219929 0.0221941 0.0223955 0.0225971 0.0227989 0.0230008 0.023203 0.0234055 0.0236081
0.023811 0.0240141 0.0242174 0.024421 0.0246248 0.0248288 0.0250331 0.0252376 0.0254424 0.0256475
0.0258528 0.0260584 0.0262643 0.0264705 0.026677 0.0268837 0.0270907 0.0272981 0.0275058 0.0277138
0.0279221 0.0281307 0.0283397 0.0285491 0.0287588 0.0289688 0.0291793 0.0293901 0.0296013 0.0298129
0.0300249 0.0302373 0.0304501 0.0306634 0.0308771 0.0310913 0.0313059 0.031521 0.0317366 0.0319527
0.0321693 0.032329 0.0324891 0.0326494 0.03281 0.0330783 0.0331148 0.0331512 0.0331877 0.0332243
0.0332608 0.0334807 0.0337012 0.0339224 0.0341442 0.0343666 0.0345897 0.0348135 0.035038 0.0352632
0.0354891 0.0357158 0.0359432 0.0361714 0.0364005 0.0364169 0.0364596 0.0365024 0.0365451 0.0365879
0.0366307 0.0368614 0.037093 0.0373255 0.0375589 0.0377933 0.0380285 0.0382648 0.0385021 0.0387404
0.0389797 0.0392201 0.0394617 0.0397044 0.0399483 0.0401934 0.0404396 0.040687 0.0409356 0.0411855
0.0414368 0.0416894 0.0419433 0.0421987 0.0424554 0.0427137 0.0429731 0.0432339 0.0434959 0.0437594
0.0440246 0.0442912 0.0445591 0.0448283 0.0450987 0.0453711 0.0456442 0.045918 0.0461925 0.0464676
0.0467454 0.0468956 0.0470458 0.047196 0.047346 0.0474312 0.047572 0.0477127 0.0478532 0.0479936
0.048135 0.0484126 0.0486885 0.0489627 0.049235 0.0495108 0.0496761 0.04984 0.0500025 0.0501636
0.0502834 0.0503939 0.0505038 0.050613 0.0507217 0.0508305 0.0510852 0.0513345 0.0515789 0.0518183
0.0520543 0.0520774 0.0521004 0.0521233 0.0521462 0.0521691 0.0523739 0.0525744 0.0527706 0.0529627
0.053149 0.0532679 0.0533848 0.0535 0.0536136 0.0537571 0.0538291 0.0539006 0.0539714 0.0540417
0.0541109 0.0542903 0.0544661 0.0546382 0.0548071 0.0549693 0.0551125 0.0552542 0.0553943 0.0555328
0.0557577 0.0557729 0.0557882 0.0558034 0.0558186 0.0558358 0.0559711 0.0561058 0.0562399 0.0563735
0.0565058 0.0566531 0.0568005 0.0569481 0.0570959 0.0572436 0.0573915 0.0575397 0.0576882 0.0578371
0.0579864 0.0581361 0.0582862 0.0584367 0.0585877 0.058739 0.0588907 0.0590427 0.059195 0.0593478
0.0595009 0.0596544 0.0598083 0.0599625 0.0601171 0.0602721 0.0604274 0.060583 0.0607389 0.0608953
0.0610519 0.061209 0.0613664 0.0615242 0.0616823 0.0618408 0.0619997 0.0621589 0.0623185 0.0624785
0.0626389 0.0627996 0.0629608 0.0631224 0.0632843 0.0634467 0.0636094 0.0637725 0.063936 0.0640999
0.0642642 0.064429 0.0645941 0.0647596 0.0649255 0.0650919 0.0652586 0.0654256 0.065593 0.0657609
0.0659291 0.0660977 0.0662667 0.066436 0.0666058 0.0667759 0.0669463 0.0671171 0.0672882 0.0674597
0.0676315 0.0678036 0.0679761 0.068149 0.0683222 0.0684956 0.0686694 0.0688435 0.0690178 0.0691925
0.0693675 0.0695428 0.0697183 0.0698942 0.0700703 0.0702467 0.0704234 0.0706003 0.0707775 0.0709549
0.0711325 0.0713104 0.0714886 0.071667 0.0718456 0.0720245 0.0722035 0.0723828 0.0725623 0.0727419
0.0729218 0.0731019 0.0732822 0.0734627 0.0736434 0.0738243 0.0740053 0.0741865 0.0743679 0.0745494
0.0747311 0.074913 0.075095 0.0752772 0.0754595 0.075642 0.0758246 0.0760073 0.0761901 0.076373
0.0765561 0.0767393 0.0769225 0.0771059 0.0772894 0.0774729 0.0776565 0.0778402 0.078024 0.0782078
0.0783916 0.0785755 0.0787594 0.0789434 0.0791273 0.0793113 0.0794953 0.0796793 0.0798633 0.0800473
0.0802313 0.0804152 0.0805992 0.0807831 0.080967 0.081151 0.0813349 0.0815187 0.0817026 0.0818864
0.0820703 0.0822541 0.0824378 0.0826216 0.0828054 0.0829891 0.0831729 0.0833567 0.0835405 0.0837244
0.0839083 0.0840923 0.0842762 0.0844603 0.0846443 0.0848285 0.0850127 0.0851971 0.0853815 0.085566
0.0857505 0.0859351 0.0861198 0.0863046 0.0864895 0.0866745 0.0868595 0.0870446 0.0872299 0.0874152
0.0876006 0.0877861 0.0879717 0.0881573 0.0883431 0.0885289 0.0887148 0.0889008 0.0890868 0.0892729
0.0894591 0.0896453 0.0898316 0.0900179 0.0902043 0.0903908 0.0905773 0.0907639 0.0909505 0.0911372
0.0913239 0.0914113 0.0914987 0.0915861 0.0916735 0.091767 0.0918652 0.0919635 0.0920617 0.09216
0.0922582 0.0924452 0.0926323 0.0928194 0.0930065 0.0931937 0.0933808 0.0935681 0.0937553 0.0939426
0.0941299 0.0943173 0.0945047 0.0946922 0.0948798 0.0950674 0.095255 0.0954427 0.0956304 0.0958182
0.096006 0.0961939 0.0963819 0.09657 0.0967582 0.0969464 0.0971347 0.097323 0.0975115 0.0977
0.0978887 0.0980774 0.0982664 0.0984554 0.0986446 0.098834 0.0990234 0.0992131 0.099403 0.0995931
0.0997834 0.099974 0.100165 0.100356 0.100548 0.10074 0.100933 0.101127 0.101321 0.101515
0.10171 0.101905 0.102101 0.102297 0.102494 0.102691 0.102743 0.102796 0.102848 0.1029
0.102948 0.103095 0.103243 0.103391 0.10354 0.103689 0.10389 0.104091 0.104292 0.104493
0.104694 0.104896 0.105097 0.105297 0.105497 0.105696 0.105768 0.105839 0.10591 0.105981
0.106042 0.10617 0.106298 0.106426 0.106553 0.10668 0.106875 0.107068 0.107262 0.107454
0.107646 0.107837 0.108028 0.108219 0.108409 0.108599 0.108788 0.108976 0.109164 0.109351
0.109539 0.109726 0.109914 0.110101 0.110289 0.110476 0.110663 0.11085 0.111037 0.111224
0.111411 0.111599 0.111787 0.111975 0.112164 0.112352 0.112541 0.11273 0.11292 0.11311
0.1133 0.113491 0.113682 0.113874 0.114066 0.114258 0.114451 0.114645 0.114839 0.115033
0.115228 0.115423 0.115619 0.115815 0.116011 0.116208 0.116406 0.116604 0.116802 0.117
0.117199 0.117398 0.117597 0.117797 0.117997 0.118197 0.118397 0.118598 0.118799 0.119
0.119201 0.119402 0.119604 0.119806 0.120007 0.120209 0.120388 0.120567 0.120746 0.120924
0.121135 0.121152 0.121169 0.121186 0.121203 0.12122 0.121422 0.121624 0.121827 0.122029
0.122231 0.122434 0.122636 0.122838 0.123041 0.123243 0.123445 0.123648 0.12385 0.124052
0.124254 0.124456 0.124659 0.124861 0.125063 0.125265 0.125467 0.125668 0.12587 0.126072
0.126274 0.126476 0.126677 0.126879 0.12708 0.127282 0.127483 0.127685 0.127886 0.128087
0.128288 0.12849 0.128691 0.128892 0.129093 0.129294 0.129495 0.129696 0.129896 0.130097
0.130298 0.130499 0.130699 0.1309 0.131101 0.131301 0.131502 0.131702 0.131903 0.132103
0.132303 0.132504 0.132704 0.132905 0.133105 0.133305 0.133505 0.133706 0.133906 0.134106
0.134306 0.134506 0.134707 0.134907 0.135107 0.135307 0.135507 0.135707 0.135907 0.136107
0.136307 0.136507 0.136707 0.136907 0.137107 0.137307 0.137507 0.137708 0.137908 0.138108
0.138308 0.138508 0.138708 0.138908 0.139108 0.139308 0.139508 0.139708 0.139908 0.140108
0.140308 0.140508 0.140708 0.140908 0.141108 0.141308 0.141508 0.141708 0.141908 0.142108
0.142308 0.142508 0.142708 0.142908 0.143108 0.143308 0.143508 0.143708 0.143908 0.144108
0.144308 0.144508 0.144708 0.144908 0.145108 0.145308 0.145508 0.145708 0.145907 0.146107
0.146307 0.146507 0.146707 0.146907 0.147107 0.147307 0.147507 0.147706 0.147906 0.148106
0.148306 0.148506 0.148705 0.148905 0.149105 0.149304 0.149504 0.149704 0.149903 0.150103
0.150302 0.150502 0.150701 0.1509 0.1511 0.151299 0.151498 0.151698 0.151897 0.152096
0.152295 0.152494 0.152693 0.152892 0.153091 0.15329 0.153489 0.153688 0.153886 0.154085
0.154284 0.154482 0.154681 0.15488 0.155078 0.155276 0.155475 0.155673 0.155871 0.15607
0.156268 0.156664 0.15706 0.157454 0.157848 0.158242 0.159029 0.159815 0.160599 0.161383
0.162165 0.162344 0.162522 0.162701 0.16288 0.163058 0.164441 0.165812 0.167173 0.168527
0.16988 0.171409 0.172935 0.17446 0.175983 0.177506 0.180552 0.183598 0.186644 0.189682
0.192711 0.198746 0.204782 0.210818 0.216853 0.222883 0.228898 0.234913 0.240928 0.246943
0.252958 0.258971 0.264984 0.270997 0.277011 0.283024 0.289036 0.295049 0.301062 0.307075
0.313088 0.3191 0.325113 0.331125 0.337138 0.343151 0.349163 0.355176 0.361188 0.367201
0.373213 0.379226 0.385238 0.391251 0.397263 0.403276 0.409288 0.415313 0.421351 0.427401
0.433465 0 7.3907e-05 0.00014782 0.000221737 0.000295661 0.000369589 0.000560798 0.000752045 0.00094333
0.00113465 0.00132601 0.00151741 0.00170885 0.00190033 0.00209185 0.00228341 0.00247501 0.00266665 0.00285834
0.00305007 0.00324184 0.00343366 0.00362552 0.00381742 0.00400938 0.00420138 0.00439342 0.00458551 0.00477766
0.00496985 0.00516209 0.00535439 0.00554673 0.00573913 0.00593158 0.00612408 0.00631664 0.00650925 0.00670192
0.00689465 0.00708743 0.00728027 0.00747317 0.00766614 0.00785916 0.00805224 0.00824539 0.0084386 0.00863187
0.00882521 0.00901862 0.00921209 0.00940563 0.00959925 0.00979293 0.00998669 0.0101805 0.0103744 0.0105684
0.0107624 0.0109566 0.0111508 0.0113451 0.0115394 0.0117339 0.0119284 0.0121231 0.0123178 0.0125126
0.0127075 0.0129024 0.0130975 0.0132927 0.013488 0.0136834 0.0138789 0.0140745 0.0142702 0.014466
0.014662 0.014858 0.0150542 0.0152505 0.015447 0.0156435 0.0158402 0.0160214 0.0162027 0.0163842
0.0165657 0.0167446 0.0167608 0.0167771 0.0167933 0.0168096 0.0168258 0.0170233 0.017221 0.0174188
0.0176167 0.0178148 0.018013 0.0182114 0.0184099 0.0186086 0.0188074 0.0190063 0.0192054 0.0194047
0.0196041 0.0198036 0.0200033 0.0202032 0.0204032 0.0206034 0.0208037 0.0210042 0.0212049 0.0214057
0.0216067 0.0218078 0.0219658 0.0221238 0.022282 0.0224402 0.0225317 0.0225886 0.0226456 0.0227025
0.0227595 0.0228165 0.0230188 0.0232212 0.0234239 0.0236268 0.0238298 0.0240331 0.0242366 0.0244403
0.0246442 0.0248484 0.0250528 0.0252575 0.0254623 0.0256675 0.0258729 0.0260785 0.0262845 0.0264907
0.0266971 0.0269039 0.027111 0.0273183 0.027526 0.027734 0.0279423 0.028151 0.0283599 0.0285693
0.028779 0.028989 0.0291994 0.0294102 0.0296214 0.029833 0.0300451 0.0300766 0.0301082 0.0301398
0.0301713 0.0302023 0.0303836 0.0305652 0.0307471 0.0309294 0.031112 0.0313267 0.031542 0.0317577
0.031974 0.0321908 0.0324082 0.0326261 0.0328446 0.0330637 0.0332835 0.0335039 0.0337249 0.0339466
0.0341691 0.0343922 0.0346161 0.0348407 0.0350662 0.0352925 0.0355196 0.0357476 0.0359764 0.0362063
0.0364371 0.0366688 0.0369016 0.0371355 0.0373706 0.0376068 0.0378442 0.0380828 0.0383226 0.0385639
0.0388065 0.0390506 0.0392961 0.0395433 0.0397922 0.0400429 0.0402952 0.0405493 0.0408053 0.0410635
0.0413238 0.0415862 0.0418508 0.042118 0.0423879 0.0426605 0.0429358 0.0432146 0.0434965 0.0437818
0.0440706 0.0443632 0.0446588 0.0449587 0.045263 0.0455718 0.0458849 0.0458852 0.0458855 0.0458857
0.045886 0.0458863 0.0462033 0.0465253 0.0468522 0.0471841 0.0475265 0.0477788 0.0480345 0.0482932
0.0485543 0.0486177 0.0487604 0.0489037 0.0490476 0.049192 0.0493406 0.0497176 0.0500981 0.0504812
0.0508627 0.050931 0.0510065 0.0510818 0.0511569 0.051232 0.0513088 0.0515585 0.0518049 0.052048