# vtk DataFile Version 2.0
tracks
ASCII
DATASET POLYDATA
POINTS 19461 float
-1.001 1e-07 0.0011 -0.99955 9.55055e-08 0.00110002 -0.9981 9.09987e-08 0.00110004 -0.99665 8.64796e-08
0.00110007 -0.9952 8.19482e-08 0.0011001 -0.99375 7.74045e-08 0.00110014 -0.99 6.56064e-08 0.00110024
-0.98625 5.38194e-08 0.00110034 -0.9825 4.20292e-08 0.00110043 -0.97875 3.01687e-08 0.00110054 -0.975
1.81736e-08 0.00110067 -0.973877 1.45389e-08 0.00110072 -0.972753 1.09048e-08 0.00110076 -0.97163 7.2704e-09
0.00110081 -0.970507 3.63563e-09 0.00110086 -0.969383 1.6364e-17 0.0011009 -0.966756 -8.50029e-09 0.00110101
-0.96413 -1.70025e-08 0.00110111 -0.961503 -2.55457e-08 0.00110122 -0.958877 -3.41573e-08 0.00110133 -0.95625
-4.28374e-08 0.00110145 -0.9525 -5.53197e-08 0.00110162 -0.94875 -6.78146e-08 0.00110179 -0.945 -8.03139e-08
0.00110196 -0.94125 -9.28888e-08 0.00110213 -0.9375 -1.05607e-07 0.00110231 -0.93375 -1.18459e-07 0.00110248
-0.93 -1.31326e-07 0.00110266 -0.92625 -1.44197e-07 0.00110284 -0.9225 -1.57146e-07 0.00110302 -0.91875
-1.70241e-07 0.0011032 -0.915 -1.83468e-07 0.00110339 -0.91125 -1.96715e-07 0.00110357 -0.9075 -2.09966e-07
0.00110376 -0.90375 -2.23297e-07 0.00110394 -0.9 -2.36774e-07 0.00110413 -0.89625 -2.50378e-07 0.00110433
-0.8925 -2.64153e-07 0.00110453 -0.88875 -2.78077e-07 0.00110473 -0.885 -2.92082e-07 0.00110493 -0.88125
-3.06092e-07 0.00110514 -0.8775 -3.20045e-07 0.00110534 -0.87375 -3.34218e-07 0.00110555 -0.87 -3.48547e-07
0.00110576 -0.86625 -3.62961e-07 0.00110598 -0.8625 -3.7738e-07 0.0011062 -0.85875 -3.91725e-07 0.00110641
-0.855 -4.06315e-07 0.00110663 -0.85125 -4.21068e-07 0.00110686 -0.8475 -4.35908e-07 0.00110709 -0.84375
-4.50755e-07 0.00110732 -0.84 -4.65576e-07 0.00110755 -0.83625 -4.80601e-07 0.00110779 -0.8325 -4.95793e-07
0.00110803 -0.82875 -5.11077e-07 0.00110827 -0.825 -5.26368e-07 0.00110852 -0.82125 -5.41545e-07 0.00110876
-0.8175 -5.5702e-07 0.00110902 -0.81375 -5.72669e-07 0.00110927 -0.81 -5.88413e-07 0.00110954 -0.80625
-6.04165e-07 0.0011098 -0.8025 -6.19779e-07 0.00111006 -0.79875 -6.35725e-07 0.00111033 -0.795 -6.5185e-07
0.0011106 -0.79125 -6.68076e-07 0.00111088 -0.7875 -6.84309e-07 0.00111116 -0.78375 -7.00507e-07 0.00111144
-0.78 -7.16943e-07 0.00111173 -0.77625 -7.33565e-07 0.00111202 -0.7725 -7.50292e-07 0.00111232 -0.76875
-7.67028e-07 0.00111262 -0.765 -7.83725e-07 0.00111292 -0.76125 -8.00668e-07 0.00111323 -0.7575 -8.17799e-07
0.00111355 -0.75375 -8.35037e-07 0.00111387 -0.75 -8.52284e-07 0.00111419 -0.74625 -8.69304e-07 0.00111451
-0.7425 -8.86766e-07 0.00111484 -0.73875 -9.04421e-07 0.00111518 -0.735 -9.22185e-07 0.00111552 -0.73125
-9.3996e-07 0.00111587 -0.7275 -9.57468e-07 0.00111621 -0.72375 -9.7547e-07 0.00111656 -0.72 -9.93671e-07
0.00111693 -0.71625 -1.01199e-06 0.0011173 -0.7125 -1.03031e-06 0.00111767 -0.70875 -1.04833e-06 0.00111804
-0.705 -1.0669e-06 0.00111842 -0.70125 -1.08566e-06 0.00111881 -0.6975 -1.10455e-06 0.0011192 -0.69375
-1.12345e-06 0.0011196 -0.69 -1.14231e-06 0.00112 -0.68625 -1.16146e-06 0.00112041 -0.6825 -1.18082e-06
0.00112083 -0.67875 -1.20031e-06 0.00112126 -0.675 -1.2198e-06 0.00112168 -0.67125 -1.23926e-06 0.00112211
-0.6675 -1.25901e-06 0.00112255 -0.66375 -1.27898e-06 0.001123 -0.66 -1.29908e-06 0.00112346 -0.65625
-1.31919e-06 0.00112392 -0.6525 -1.33881e-06 0.00112438 -0.64875 -1.35919e-06 0.00112485 -0.645 -1.37978e-06
0.00112534 -0.64125 -1.4005e-06 0.00112583 -0.6375 -1.42124e-06 0.00112633 -0.63375 -1.44194e-06 0.00112682
-0.63 -1.46296e-06 0.00112733 -0.62625 -1.48421e-06 0.00112785 -0.6225 -1.50559e-06 0.00112838 -0.61875
-1.527e-06 0.00112891 -0.615 -1.54836e-06 0.00112944 -0.61125 -1.57007e-06 0.00112999 -0.6075 -1.592e-06
0.00113055 -0.60375 -1.61407e-06 0.00113112 -0.6 -1.63616e-06 0.00113169 -0.59625 -1.65822e-06 0.00113227
-0.5925 -1.68043e-06 0.00113284 -0.58875 -1.70265e-06 0.00113341 -0.585 -1.72502e-06 0.00113399 -0.58125
-1.74763e-06 0.00113459 -0.5775 -1.76956e-06 0.0011352 -0.57375 -1.7925e-06 0.00113582 -0.57 -1.81547e-06
0.00113643 -0.56625 -1.83859e-06 0.00113706 -0.5625 -1.86196e-06 0.0011377 -0.55875 -1.88453e-06 0.00113836
-0.555 -1.90827e-06 0.00113902 -0.55125 -1.93205e-06 0.00113968 -0.5475 -1.95599e-06 0.00114035 -0.54375
-1.9802e-06 0.00114104 -0.54 -2.00465e-06 0.00114175 -0.53625 -2.02927e-06 0.00114246 -0.5325 -2.05393e-06
0.00114316 -0.52875 -2.07877e-06 0.00114388 -0.525 -2.1039e-06 0.00114462 -0.52125 -2.12789e-06 0.00114538
-0.5175 -2.15348e-06 0.00114614 -0.51375 -2.17911e-06 0.0011469 -0.51 -2.20493e-06 0.00114767 -0.50625
-2.23106e-06 0.00114846 -0.5025 -2.25582e-06 0.00114927 -0.49875 -2.28246e-06 0.00115008 -0.495 -2.30913e-06
0.00115089 -0.49125 -2.33602e-06 0.00115171 -0.4875 -2.36323e-06 0.00115255 -0.48375 -2.39078e-06 0.00115341
-0.48 -2.41856e-06 0.00115427 -0.47625 -2.44638e-06 0.00115513 -0.4725 -2.47444e-06 0.001156 -0.46875
-2.50285e-06 0.00115689 -0.465 -2.53165e-06 0.0011578 -0.46125 -2.56069e-06 0.00115871 -0.4575 -2.58979e-06
0.00115962 -0.45375 -2.61915e-06 0.00116054 -0.45 -2.64888e-06 0.00116148 -0.44625 -2.67906e-06 0.00116243
-0.4425 -2.70951e-06 0.00116338 -0.43875 -2.74002e-06 0.00116434 -0.435 -2.77082e-06 0.0011653 -0.43125
-2.80201e-06 0.00116627 -0.4275 -2.83044e-06 0.00116726 -0.42375 -2.86245e-06 0.00116825 -0.42 -2.89453e-06
0.00116924 -0.41625 -2.9269e-06 0.00117023 -0.4125 -2.95971e-06 0.00117124 -0.40875 -2.98922e-06 0.00117224
-0.405 -3.02296e-06 0.00117325 -0.40125 -3.05677e-06 0.00117426 -0.3975 -3.09091e-06 0.00117527 -0.39375
-3.12552e-06 0.00117628 -0.39 -3.16083e-06 0.00117728 -0.38625 -3.19651e-06 0.00117829 -0.3825 -3.23228e-06
0.0011793 -0.37875 -3.26841e-06 0.00118029 -0.375 -3.30506e-06 0.00118127 -0.37125 -3.34251e-06 0.00118224
-0.3675 -3.38039e-06 0.0011832 -0.36375 -3.41837e-06 0.00118417 -0.36 -3.45674e-06 0.00118511 -0.35625
-3.49565e-06 0.00118601 -0.3525 -3.52884e-06 0.00118688 -0.34875 -3.56915e-06 0.00118775 -0.345 -3.60957e-06
0.00118861 -0.34125 -3.65042e-06 0.00118944 -0.3375 -3.69184e-06 0.0011902 -0.33375 -3.73436e-06 0.00119089
-0.33 -3.7774e-06 0.00119158 -0.32625 -3.82057e-06 0.00119228 -0.3225 -3.8642e-06 0.00119289 -0.31875
-3.90843e-06 0.00119341 -0.315 -3.95393e-06 0.00119382 -0.31125 -4.00002e-06 0.00119424 -0.3075 -4.04625e-06
0.00119465 -0.30375 -4.09297e-06 0.00119495 -0.3 -4.14034e-06 0.00119509 -0.29625 -4.17756e-06 0.00119507
-0.2925 -4.22755e-06 0.00119482 -0.28875 -4.27819e-06 0.00119433 -0.285 -4.32933e-06 0.00119367 -0.28125
-4.38059e-06 0.00119302 -0.2775 -4.41903e-06 0.00119236 -0.27375 -4.47261e-06 0.00119137 -0.27 -4.52679e-06
0.00119004 -0.26625 -4.58144e-06 0.00118847 -0.2625 -4.6362e-06 0.00118691 -0.25875 -4.67555e-06 0.00118534
-0.255 -4.73286e-06 0.0011833 -0.25125 -4.79073e-06 0.00118077 -0.2475 -4.849e-06 0.00117791 -0.24375
-4.90737e-06 0.00117506 -0.24 -4.96752e-06 0.00117221 -0.23625 -5.02871e-06 0.00116874 -0.2325 -5.09032e-06
0.00116463 -0.22875 -5.15223e-06 0.0011601 -0.225 -5.2142e-06 0.0011556 -0.22125 -5.25397e-06 0.00115111
-0.2175 -5.31857e-06 0.00114577 -0.21375 -5.38345e-06 0.00113956 -0.21 -5.44848e-06 0.00113286 -0.20625
-5.51354e-06 0.00112619 -0.2025 -5.55251e-06 0.00111957 -0.19875 -5.62147e-06 0.00111175 -0.195 -5.69046e-06
0.00110272 -0.19125 -5.75943e-06 0.00109311 -0.1875 -5.82836e-06 0.00108359 -0.18375 -5.89909e-06 0.00107417
-0.18 -5.9697e-06 0.00106323 -0.17625 -6.03967e-06 0.00105078 -0.1725 -6.10929e-06 0.00103782 -0.16875
-6.17878e-06 0.00102503 -0.165 -6.25096e-06 0.00101242 -0.16125 -6.32215e-06 0.000998039 -0.1575 -6.39209e-06
0.000981911 -0.15375 -6.46153e-06 0.000965546 -0.15 -6.53078e-06 0.000949484 -0.14625 -6.60298e-06 0.00093371
-0.1425 -6.67228e-06 0.000915946 -0.13875 -6.73874e-06 0.000896246 -0.135 -6.80478e-06 0.000876811 -0.13125
-6.87065e-06 0.000857834 -0.1275 -6.89173e-06 0.000839294 -0.12375 -6.95718e-06 0.000818697 -0.12 -7.02039e-06
0.000796443 -0.11625 -7.08348e-06 0.000774833 -0.1125 -7.14645e-06 0.000753845 -0.10875 -7.16143e-06 0.000733445
-0.105 -7.22091e-06 0.000711034 -0.10125 -7.27725e-06 0.000687663 -0.0975 -7.33368e-06 0.000665085 -0.0937499
-7.3902e-06 0.000643273 -0.0899999 -7.44909e-06 0.00062218 -0.0862499 -7.50495e-06 0.00059957 -0.0824999 -7.56026e-06
0.000576897 -0.0787499 -7.61575e-06 0.000555087 -0.0749999 -7.67144e-06 0.000534106 -0.0712499 -7.72883e-06 0.0005139
-0.0674999 -7.78779e-06 0.000493629 -0.0637499 -7.84736e-06 0.000474006 -0.0599999 -7.90702e-06 0.000455151 -0.0562499
-7.96678e-06 0.000437035 -0.0524999 -7.97441e-06 0.000419606 -0.0487498 -8.03091e-06 0.000404535 -0.0449998 -8.08756e-06
0.000389987 -0.0412498 -8.14439e-06 0.000375947 -0.0374998 -8.20139e-06 0.000362399 -0.0337498 -8.25867e-06 0.000349309
-0.0299998 -8.31198e-06 0.000340682 -0.0262498 -8.36552e-06 0.00033226 -0.0224998 -8.4193e-06 0.000324038 -0.0187499
-8.47333e-06 0.000316013 -0.0149999 -8.52653e-06 0.000308176 -0.0112499 -8.58245e-06 0.000304749 -0.0074999 -8.63859e-06
0.000301359 -0.00374991 -8.69493e-06 0.000298006 6.11927e-08 -8.75148e-06 0.000294688 0.00375005 -8.76149e-06 0.000291408
0.00750005 -8.81155e-06 0.000288178 0.01125 -8.86176e-06 0.000284982 0.015 -8.9121e-06 0.00028182 0.01875
-8.96259e-06 0.000278692 0.0225 -8.97978e-06 0.000277657 0.02625 -9.03332e-06 0.000276631 0.03 -9.08701e-06
0.000275609 0.03375 -9.14087e-06 0.000274591 0.0375 -9.19489e-06 0.000273576 0.04125 -9.21553e-06 0.000273089
0.045 -9.26801e-06 0.000272607 0.04875 -9.32065e-06 0.000272125 0.0525 -9.37343e-06 0.000271644 0.05625
-9.42636e-06 0.000271164 0.06 -9.48231e-06 0.000270967 0.06375 -9.53451e-06 0.000270772 0.0675 -9.58685e-06
0.000270578 0.07125 -9.63933e-06 0.000270383 0.075 -9.69195e-06 0.000270189 0.07875 -9.71851e-06 0.000270143
0.0825 -9.7705e-06 0.000270098 0.08625 -9.82263e-06 0.000270054 0.09 -9.87488e-06 0.00027001 0.09375
-9.92727e-06 0.000269965 0.0975 -9.95434e-06 0.000269971 0.10125 -1.00059e-05 0.000269979 0.105 -1.00577e-05
0.000269986 0.10875 -1.01095e-05 0.000269994 0.1125 -1.01615e-05 0.000270002 0.11625 -1.0217e-05 0.000270021
[...]
POINT_DATA 19461
FIELD attributes 3
age 1 19461 float
0 7.30149e-05 0.000146034 0.000219056 0.000292082 0.000365111 0.000553991 0.00074287 0.00093175 0.00112065 0.00130957
0.00136618 0.00142279 0.00147939 0.001536 0.00159261 0.00172497 0.00185732 0.00198968 0.00212206 0.00225446
0.00244351 0.00263256 0.00282161 0.00301067 0.00319978 0.00338892 0.00357806 0.0037672 0.00395637 0.00414557
0.00433481 0.00452405 0.0047133 0.00490256 0.00509187 0.00528122 0.00547061 0.00566005 0.00584952 0.00603898
0.00622845 0.00641796 0.00660752 0.00679711 0.0069867 0.00717628 0.00736592 0.00755562 0.00774534 0.00793506
0.00812478 0.00831455 0.00850439 0.00869425 0.00888411 0.00907397 0.0092639 0.00945388 0.0096439 0.00983391
0.0100239 0.010214 0.0104042 0.0105943 0.0107845 0.0109747 0.011165 0.0113553 0.0115456 0.011736
0.0119264 0.0121168 0.0123073 0.0124979 0.0126884 0.012879 0.0130696 0.0132603 0.0134511 0.0136418
0.0138326 0.0140235 0.0142144 0.0144054 0.0145964 0.0147874 0.0149784 0.0151696 0.0153609 0.0155521
0.0157433 0.0159347 0.0161261 0.0163176 0.0165091 0.0167006 0.0168922 0.017084 0.0172758 0.0174676
0.0176594 0.0178513 0.0180433 0.0182354 0.0184275 0.0186197 0.0188119 0.0190043 0.0191967 0.0193892
0.0195817 0.0197743 0.019967 0.0201599 0.0203527 0.0205456 0.0207384 0.0209313 0.0211242 0.0213173
0.0215106 0.0217038 0.0218971 0.0220905 0.022284 0.0224777 0.0226715 0.0228652 0.023059 0.0232531
0.0234473 0.0236415 0.0238357 0.0240301 0.0242247 0.0244194 0.0246142 0.024809 0.0250039 0.0251991
0.0253945 0.0255899 0.0257853 0.0259809 0.0261767 0.0263727 0.0265688 0.0267649 0.0269611 0.0271577
0.0273545 0.0275513 0.0277481 0.0279451 0.0281425 0.0283401 0.0285377 0.0287354 0.0289333 0.0291315
0.02933 0.0295286 0.0297271 0.029926 0.0301251 0.0303247 0.0305243 0.0307238 0.0309237 0.0311239
0.0313246 0.0315253 0.031726 0.0319269 0.0321284 0.0323303 0.0325321 0.0327341 0.0329363 0.033139
0.0333422 0.0335454 0.0337487 0.0339523 0.0341564 0.0343611 0.0345657 0.0347704 0.0349755 0.0351811
0.0353873 0.0355935 0.0357996 0.0360063 0.0362135 0.0364213 0.0366296 0.0368386 0.0370481 0.0372575
0.0374668 0.0376768 0.0378874 0.0380984 0.0383094 0.0385203 0.0387317 0.0389438 0.0391562 0.0393685
0.0395807 0.0397934 0.0400066 0.04022 0.0404332 0.0406464 0.0408599 0.0410737 0.0412875 0.0415012
0.0417147 0.0419283 0.0421418 0.0423553 0.0425684 0.0427813 0.0429938 0.0432059 0.0434176 0.0436289
0.0438399 0.04405 0.0442592 0.0444679 0.0446761 0.044884 0.0450903 0.0452952 0.0454996 0.0457035
0.0459071 0.0461085 0.046308 0.0465071 0.0467059 0.0469043 0.0471 0.0472939 0.0474875 0.0476809
0.0478741 0.0480639 0.0482524 0.0484409 0.0486293 0.0488177 0.0490024 0.0491866 0.0493709 0.0495554
0.04974 0.0499212 0.0501026 0.0502843 0.0504661 0.0506481 0.0508281 0.0510082 0.0511885 0.0513689
0.0515495 0.0517294 0.0519094 0.0520895 0.0522696 0.0524499 0.0526302 0.0528105 0.052991 0.0531715
0.0533522 0.0535328 0.0537135 0.0538942 0.0540749 0.054256 0.054437 0.054618 0.0547991 0.0549802
0.0551616 0.055343 0.0555244 0.0557058 0.0558872 0.056069 0.0562507 0.0564324 0.0566141 0.0567958
0.0569779 0.0571599 0.0573419 0.0575239 0.0577059 0.0578883 0.0580706 0.0582529 0.0584352 0.0586175
0.0588001 0.0589827 0.0591653 0.0593479 0.0595305 0.0597134 0.0598963 0.0600792 0.0602621 0.060445
0.0606282 0.0608114 0.0609946 0.0611778 0.061361 0.0615445 0.061728 0.0619115 0.062095 0.0622785
0.0624624 0.0626462 0.0628299 0.0630137 0.0631975 0.0633816 0.0635657 0.0637498 0.0639339 0.064118
0.0643023 0.0644867 0.064671 0.0648553 0.0650397 0.0652243 0.0654088 0.0655934 0.065778 0.0659626
0.0661474 0.0663322 0.0665169 0.0667017 0.0668865 0.0670715 0.0672567 0.0674418 0.067627 0.0678121
0.0679973 0.0681826 0.0683679 0.0685532 0.0687385 0.0689238 0.0691093 0.0692947 0.0694801 0.0696656
0.069851 0.0700366 0.0702221 0.0704077 0.0705932 0.0707788 0.0709644 0.0711501 0.0713357 0.0715214
0.071707 0.0718928 0.0720785 0.0722642 0.0724499 0.0726357 0.0728215 0.0730072 0.073193 0.0733788
0.0735646 0.0737504 0.0739362 0.0741221 0.0743079 0.0744937 0.0746796 0.0748654 0.0750512 0.0752371
0.075423 0.0756088 0.0757946 0.0759805 0.0761663 0.0763522 0.076538 0.0767238 0.0769096 0.0770954
0.0772813 0.0774671 0.0776528 0.0778386 0.0780244 0.0782102 0.0783959 0.0785817 0.0787674 0.0789532
0.0791389 0.0793246 0.0795104 0.0796961 0.0798818 0.0800675 0.0802532 0.0804389 0.0806246 0.0808103
0.080996 0.0811817 0.0813674 0.0815531 0.0817388 0.0819246 0.0821103 0.082296 0.0824817 0.0826674
0.0828532 0.083039 0.0832247 0.0834105 0.0835962 0.0836438 0.0836915 0.0837391 0.0837867 0.0838343
0.0839725 0.0841107 0.0842489 0.0843872 0.0845254 0.0847113 0.0848971 0.085083 0.0852689 0.0854548
0.0856408 0.0858267 0.0860127 0.0861987 0.0863846 0.0865707 0.0867567 0.0869427 0.0871287 0.0873148
0.0875009 0.0876869 0.087873 0.0880591 0.0882452 0.0884314 0.0886175 0.0888037 0.0889898 0.089176
0.0893622 0.0895484 0.0897346 0.0899208 0.090107 0.0902933 0.0904795 0.0906658 0.090852 0.0910383
0.0912246 0.0914109 0.0915971 0.0917834 0.0919697 0.0921561 0.0923424 0.0925287 0.092715 0.0929014
0.0930877 0.0932741 0.0934605 0.0936468 0.0938332 0.0940196 0.094206 0.0943924 0.0945788 0.0947651
0.0949516 0.095138 0.0953244 0.0955108 0.0956973 0.0958837 0.0960702 0.0962566 0.0964431 0.0966295
0.0968161 0.0970026 0.0971891 0.0973757 0.0975622 0.0977488 0.0979354 0.098122 0.0983086 0.0984952
0.0986818 0.0988685 0.0990552 0.0992418 0.0994285 0.0996152 0.0998019 0.0999886 0.100175 0.100362
0.100549 0.100736 0.100922 0.101109 0.101296 0.101483 0.10167 0.101857 0.102043 0.10223
0.102417 0.102604 0.102792 0.102979 0.103166 0.103353 0.103541 0.103728 0.103916 0.104103
0.104291 0.104479 0.104667 0.104855 0.105043 0.105231 0.105419 0.105608 0.105797 0.105985
0.106174 0.106363 0.106552 0.106741 0.106931 0.10712 0.107309 0.107499 0.107689 0.107879
0.108068 0.108259 0.108449 0.108639 0.10883 0.10902 0.10921 0.109401 0.109591 0.109782
0.109972 0.110163 0.110354 0.110545 0.110736 0.110926 0.111117 0.111308 0.111499 0.11169
0.111881 0.112072 0.112263 0.112453 0.112644 0.112835 0.113026 0.113217 0.113408 0.113599
0.11379 0.11398 0.114171 0.114362 0.114553 0.114744 0.114935 0.115126 0.115317 0.115508
0.115698 0.115889 0.11608 0.116271 0.116462 0.116653 0.116844 0.117034 0.117225 0.117416
0.117607 0.117798 0.117988 0.118179 0.11837 0.118561 0.118752 0.118942 0.119133 0.119324
0.119514 0.119705 0.119896 0.120087 0.120278 0.120468 0.120659 0.12085 0.121041 0.121231
0.121422 0.121613 0.121803 0.121994 0.122185 0.122375 0.122566 0.122757 0.122948 0.123138
0.123329 0.123519 0.12371 0.123901 0.124092 0.124282 0.124473 0.124663 0.124854 0.125045
0.125235 0.125426 0.125617 0.125807 0.125998 0.126188 0.126379 0.126569 0.12676 0.126951
0.127141 0.127331 0.127522 0.127713 0.127903 0.128093 0.128284 0.128475 0.128665 0.128856
0.129046 0.129236 0.129427 0.129617 0.129808 0.129998 0.130188 0.130379 0.130569 0.13076
0.13095 0.13114 0.13133 0.131521 0.131711 0.131901 0.132091 0.132282 0.132472 0.132663
0.132852 0.133043 0.133233 0.133423 0.133614 0.133803 0.133993 0.134184 0.134374 0.134564
0.134754 0.134944 0.135134 0.135325 0.135515 0.135704 0.135894 0.136085 0.136275 0.136465
0.136654 0.136845 0.137035 0.137225 0.137415 0.137604 0.137795 0.137985 0.138175 0.138365
0.138554 0.138744 0.138935 0.139125 0.139315 0.139504 0.139694 0.139884 0.140074 0.140264
0.140453 0.140643 0.140833 0.141023 0.141213 0.141402 0.141592 0.141782 0.141972 0.142162
0.142351 0.142541 0.14273 0.14292 0.14311 0.143299 0.143488 0.143678 0.143868 0.144057
0.144246 0.144436 0.144625 0.144815 0.145005 0.145193 0.145383 0.145572 0.145762 0.145951
0.14614 0.146329 0.146519 0.146708 0.146898 0.147086 0.147275 0.147465 0.147654 0.147843
0.148032 0.148221 0.14841 0.148599 0.148789 0.148977 0.149166 0.149355 0.149544 0.149733
0.149922 0.150111 0.1503 0.150489 0.150678 0.150866 0.151055 0.151244 0.151433 0.151622
0.151998 0.152375 0.152752 0.153128 0.153505 0.154256 0.155007 0.155758 0.156509 0.15726
0.15876 0.160261 0.161762 0.163262 0.164763 0.166263 0.167763 0.169263 0.170764 0.172264
0.175264 0.178264 0.181264 0.184265 0.187265 0.193265 0.199265 0.205265 0.211265 0.217265
0.223265 0.229265 0.235265 0.241265 0.247265 0.253265 0.259265 0.265265 0.271265 0.277266
0.283266 0.289266 0.295266 0.301266 0.307266 0.313266 0.319266 0.325266 0.331266 0.337266
0.343266 0.349266 0.355266 0.361266 0.367266 0.373266 0.379266 0.385266 0.391266 0.397266
0.403266 0.403313 0 7.36876e-05 0.000147379 0.000221075 0.000294774 0.000368478 0.000433986 0.000499499
0.000565015 0.000630536 0.000694888 0.000820277 0.00094568 0.0010711 0.00119653 0.00132198 0.00151277 0.0017036
0.00189447 0.00208537 0.0022763 0.00246727 0.00265828 0.00284933 0.00304041 0.00323153 0.00342269 0.0036139
0.00380514 0.00399642 0.00418774 0.0043791 0.00457051 0.00476196 0.00495345 0.00514499 0.00533657 0.0055282
0.00571987 0.00591159 0.00610336 0.00629517 0.00648703 0.00667894 0.00687091 0.00706292 0.00725498 0.0074471
0.00763927 0.0078315 0.00802377 0.00821611 0.0084085 0.00860094 0.00879345 0.00898601 0.00917863 0.00937132
0.00956406 0.00975687 0.00994974 0.0101427 0.0103357 0.0105287 0.0107219 0.0109151 0.0111083 0.0113017
0.0114951 0.0116886 0.0118821 0.0120758 0.0122695 0.0124633 0.0126571 0.0128511 0.0130451 0.0132392
0.0134334 0.0136277 0.013822 0.0140165 0.014211 0.0144056 0.0146004 0.0147952 0.0149901 0.0151851
0.0153802 0.0155754 0.0157707 0.0159661 0.0161616 0.0163573 0.016553 0.0167488 0.0169448 0.0171408
0.017337 0.0175333 0.0177298 0.0179263 0.018123 0.0183198 0.0185167 0.0187138 0.0189109 0.0191083
0.0193057 0.0195033 0.0197011 0.019899 0.020097 0.0202952 0.0204936 0.0206921 0.0208908 0.0210896
0.0212886 0.0214878 0.0216871 0.0218866 0.0220863 0.0222862 0.0224863 0.0226866 0.022887 0.0230876
0.0232885 0.0234896 0.0236908 0.0238923 0.024094 0.0242959 0.0244981 0.0247005 0.0249031 0.0251059
0.025309 0.0255124 0.025716 0.0259199 0.026124 0.0263284 0.0265331 0.0267381 0.0269434 0.0271489
0.0273548 0.027561 0.0277675 0.0279743 0.0281814 0.0283889 0.0285968 0.0288049 0.0290135 0.0292224
0.0294317 0.0296413 0.0298514 0.0300619 0.0302728 0.0304841 0.0306958 0.030908 0.0311206 0.0313337
0.0315473 0.0317613 0.0319759 0.0321909 0.0324065 0.0326226 0.0328393 0.0330565 0.0332742 0.0334926
0.0337116 0.0339311 0.0341513 0.0343721 0.0345937 0.0348159 0.0350387 0.0352623 0.0354866 0.0357116
0.0359374 0.036164 0.0363914 0.0366196 0.0368486 0.0370785 0.0373094 0.037541 0.0377736 0.0380071
0.0382416 0.0384771 0.0387135 0.038951 0.0391896 0.0394293 0.0396701 0.039912 0.040155 0.0403991
0.0406444 0.0408909 0.0411387 0.0413877 0.041638 0.0418896 0.0421425 0.0423968 0.0426522 0.0429089
0.0431667 0.0434257 0.0436865 0.0439485 0.0442116 0.044476 0.0447413 0.0450086 0.0452764 0.0455448
0.0458136 0.046083 0.0463548 0.0464816 0.0466083 0.046735 0.0468615 0.0469413 0.0470955 0.0472496
0.0474036 0.0475573 0.0477121 0.0479829 0.0482519 0.0485191 0.0487843 0.0490527 0.0491984 0.0493429
0.0494863 0.0496285 0.0497383 0.0498591 0.0499791 0.0500984 0.0502168 0.0503355 0.0505828 0.050825
0.0510623 0.0512949 0.051524 0.0515392 0.0515543 0.0515694 0.0515845 0.0515996 0.0518065 0.0520088
0.0522067 0.0524004 0.052588 0.0526991 0.0528084 0.0529162 0.0530225 0.053156 0.0532307 0.0533047
0.053378 0.0534507 0.0535223 0.0536966 0.0538674 0.0540346 0.0541986 0.0543562 0.0544943 0.0546309
0.0547659 0.0548995 0.0551222 0.0551364 0.0551505 0.0551646 0.0551787 0.0551947 0.0553268 0.0554583
0.0555892 0.0557196 0.0558487 0.0559916 0.0561346 0.0562778 0.0564211 0.0565643 0.0567077 0.0568513
0.0569952 0.0571395 0.0572842 0.0574292 0.0575746 0.0577204 0.0578665 0.058013 0.0581598 0.0583069
0.0584543 0.0586021 0.0587502 0.0588986 0.0590473 0.0591963 0.0593457 0.0594953 0.0596453 0.0597955
0.0599461 0.0600969 0.060248 0.0603995 0.0605512 0.0607033 0.0608556 0.0610083 0.0611613 0.0613146
0.0614682 0.0616222 0.0617765 0.0619311 0.062086 0.0622413 0.062397 0.062553 0.0627093 0.062866
0.063023 0.0631803 0.063338 0.0634961 0.0636545 0.0638133 0.0639724 0.0641318 0.0642916 0.0644518
0.0646122 0.064773 0.0649342 0.0650956 0.0652575 0.0654196 0.065582 0.0657448 0.0659079 0.0660713
0.066235 0.066399 0.0665632 0.0667278 0.0668927 0.0670579 0.0672233 0.067389 0.067555 0.0677212
0.0678877 0.0680544 0.0682214 0.0683887 0.0685561 0.0687239 0.0688918 0.06906 0.0692284 0.069397
0.0695658 0.0697348 0.069904 0.0700734 0.070243 0.0704128 0.0705827 0.0707529 0.0709232 0.0710937
0.0712643 0.0714351 0.0716061 0.0717772 0.0719485 0.0721199 0.0722914 0.0724631 0.072635 0.0728069
0.0729789 0.0731511 0.0733234 0.0734958 0.0736683 0.0738409 0.0740136 0.0741863 0.0743592 0.0745321
0.0747051 0.0748782 0.0750513 0.0752245 0.0753978 0.0755711 0.0757444 0.0759178 0.0760912 0.0762646
0.076438 0.0766114 0.0767848 0.0769583 0.0771317 0.0773052 0.0774786 0.0776519 0.0778253 0.0779986
0.0781719 0.0783451 0.0785183 0.0786915 0.0788646 0.0790377 0.0792107 0.0793837 0.0795566 0.0797295
0.0799023 0.0800751 0.0802478 0.0804205 0.0805932 0.0807659 0.0809386 0.0811112 0.0812839 0.0814565
0.0816292 0.0818018 0.0819746 0.0821473 0.0823201 0.082493 0.082666 0.082839 0.0828902 0.0829415
0.0829928 0.0830441 0.0830934 0.0832157 0.083338 0.0834603 0.0835827 0.0837052 0.0838787 0.0840523
0.084226 0.0843999 0.0845739 0.0847479 0.0849221 0.0850963 0.0852707 0.0854452 0.0856199 0.0857946
0.0859695 0.0861445 0.0863196 0.0864948 0.0866702 0.0868456 0.0870211 0.0871968 0.0873726 0.0875485
0.0877245 0.0879006 0.0880768 0.0882531 0.0884295 0.088606 0.0887826 0.0889593 0.0891362 0.0893131
0.0894901 0.0896672 0.0898444 0.0900217 0.090199 0.0903764 0.0905539 0.0907315 0.0909092 0.091087
0.0912648 0.0914427 0.0916207 0.0917988 0.0919769 0.0921551 0.0923333 0.0925117 0.0926901 0.0928686
0.0930471 0.0932257 0.0934044 0.0935832 0.093762 0.0939408 0.0941197 0.0942988 0.0944779 0.094657
0.0948362 0.0950155 0.0951949 0.0953744 0.0955539 0.0957334 0.0959131 0.0960928 0.0962727 0.0964526
0.0966327 0.0968128 0.096993 0.0971734 0.0973539 0.0975345 0.0977153 0.0978962 0.0980778 0.0982594
0.0984413 0.0986233 0.0988054 0.0989868 0.0991683 0.0993498 0.0995314 0.099713 0.099895 0.100077
0.100259 0.100441 0.100623 0.100806 0.100988 0.101171 0.101354 0.101537 0.101721 0.101905
0.102089 0.102274 0.10246 0.102646 0.102832 0.103019 0.103207 0.103396 0.103586 0.103776
0.103968 0.104161 0.104354 0.104549 0.104745 0.104942 0.10514 0.10534 0.105541 0.105744
0.105948 0.106154 0.106361 0.10657 0.10678 0.106991 0.107205 0.10742 0.107637 0.107856
0.108077 0.1083 0.108525 0.108752 0.10898 0.10921 0.109441 0.109675 0.109911 0.110149
0.110389 0.110631 0.110874 0.11112 0.111367 0.111616 0.111866 0.112119 0.112373 0.112629
0.112886 0.113145 0.113406 0.113668 0.113932 0.114197 0.114463 0.114731 0.115 0.115271
0.115542 0.115815 0.116089 0.116364 0.116641 0.116918 0.117196 0.117476 0.117756 0.118037
0.118318 0.118601 0.118884 0.119168 0.119453 0.119738 0.120024 0.120311 0.120598 0.120885
0.121173 0.121462 0.12175 0.122039 0.122329 0.122618 0.122908 0.123199 0.12344 0.123683
0.123925 0.124167 0.124394 0.124445 0.124497 0.124548 0.124599 0.124651 0.124941 0.125232
0.125522 0.125813 0.126103 0.126393 0.126683 0.126974 0.127264 0.127553 0.127842 0.128131
0.12842 0.128709 0.128997 0.129284 0.129571 0.129859 0.130146 0.130433 0.130717 0.131003
0.131288 0.131573 0.131858 0.13214 0.132424 0.132708 0.132991 0.133274 0.133554 0.133836
0.134117 0.134399 0.134679 0.134957 0.135237 0.135516 0.135795 0.136074 0.13635 0.136628
0.136904 0.137181 0.137457 0.137731 0.138006 0.13828 0.138554 0.138828 0.138909 0.138991
0.139073 0.139155 0.13924 0.13943 0.139619 0.139809 0.139998 0.140187 0.140457 0.140728
0.140998 0.141267 0.141536 0.141804 0.142073 0.142341 0.142608 0.142876 0.143141 0.143408
0.143675 0.143941 0.144206 0.144469 0.144734 0.144999 0.145264 0.145527 0.145789 0.146051
0.146315 0.146578 0.14684 0.147099 0.14736 0.147623 0.147885 0.148145 0.148402 0.148661
0.148922 0.149183 0.149441 0.149697 0.149955 0.150214 0.150473 0.15073 0.150984 0.15124
0.151498 0.151755 0.15201 0.152263 0.152518 0.152773 0.153028 0.153282 0.153534 0.153787
0.154041 0.154295 0.154547 0.154798 0.15505 0.155301 0.155553 0.155804 0.156053 0.156304
0.156555 0.156805 0.157055 0.157302 0.157551 0.1578 0.158048 0.158296 0.158543 0.15879
0.159038 0.159284 0.159531 0.159776 0.160022 0.160267 0.160512 0.160757 0.160913 0.161069
0.161225 0.161381 0.161523 0.161614 0.161704 0.161795 0.161885 0.161976 0.162219 0.162462
0.162704 0.162947 0.16319 0.163432 0.163674 0.163916 0.164158 0.1644 0.16464 0.164881
0.165122 0.165362 0.165602 0.165841 0.166081 0.16632 0.166558 0.166797 0.166912 0.167027
0.167142 0.167257 0.167349 0.167476 0.167603 0.167729 0.167856 0.167982 0.168447 0.168915
0.169374 0.169815 0.170246 0.171053 0.171859 0.172664 0.173465 0.174263 0.175793 0.177326
0.178855 0.180381 0.181903 0.183411 0.184923 0.186434 0.187944 0.189453 0.19246 0.19547
0.198478 0.201486 0.204492 0.210496 0.216501 0.222506 0.22851 0.234514 0.240515 0.246517
0.25252 0.258522 0.264525 0.270525 0.276527 0.282529 0.288531 0.294533 0.300534 0.306535
0.312537 0.318539 0.32454 0.33054 0.336542 0.342543 0.348545 0.354546 0.360546 0.366547
0.372548 0.37855 0.384551 0.390551 0.396552 0.402553 0.408554 0.414555 0.420555 0.42318
0 7.36636e-05 0.000147332 0.000221005 0.000294682 0.000368364 0.000435462 0.000502564 0.000569669 0.000636779
0.000702667 0.000826422 0.00095019 0.00107397 0.00119777 0.00132158 0.00151231 0.00170308 0.00189389 0.00208472
0.0022756 0.0024665 0.00265745 0.00284843 0.00303944 0.0032305 0.00342159 0.00361272 0.00380389 0.0039951
0.00418635 0.00437764 0.00456897 0.00476035 0.00495176 0.00514322 0.00533473 0.00552627 0.00571786 0.0059095
0.00610118 0.00629291 0.00648469 0.00667651 0.00686838 0.00706031 0.00725228 0.0074443 0.00763638 0.0078285
0.00802068 0.00821292 0.0084052 0.00859755 0.00878995 0.00898241 0.00917492 0.00936749 0.00956012 0.00975282
0.00994557 0.0101384 0.0103313 0.0105242 0.0107172 0.0109103 0.0111034 0.0112966 0.0114899 0.0116833
0.0118767 0.0120702 0.0122638 0.0124574 0.0126511 0.0128449 0.0130388 0.0132327 0.0134268 0.0136209
0.0138151 0.0140094 0.0142038 0.0143982 0.0145928 0.0147874 0.0149821 0.015177 0.0153719 0.0155669
0.015762 0.0159572 0.0161525 0.016348 0.0165435 0.0167391 0.0169348 0.0171307 0.0173267 0.0175227
0.0177189 0.0179152 0.0181117 0.0183082 0.0185049 0.0187017 0.0188987 0.0190957 0.0192929 0.0194903
0.0196878 0.0198854 0.0200832 0.0202811 0.0204791 0.0206774 0.0208757 0.0210743 0.021273 0.0214718
0.0216708 0.02187 0.0220694 0.022269 0.0224687 0.0226686 0.0228687 0.023069 0.0232695 0.0234702
0.0236711 0.0238722 0.0240735 0.0242751 0.0244768 0.0246788 0.024881 0.0250835 0.0252862 0.0254891
0.0256923 0.0258958 0.0260995 0.0263035 0.0265077 0.0267123 0.0269171 0.0271222 0.0273277 0.0275334
0.0277394 0.0279458 0.0281525 0.0283595 0.0285669 0.0287747 0.0289828 0.0291912 0.0294001 0.0296094
0.029819 0.0298574 0.0298957 0.0299341 0.0299725 0.0300101 0.0301823 0.0303548 0.0305275 0.0307006
0.030874 0.0310862 0.031299 0.0315123 0.031726 0.0319403 0.0321551 0.0323705 0.0325864 0.0328029
0.0330201 0.0332378 0.0334561 0.0336752 0.0338949 0.0341153 0.0343363 0.0345582 0.0347808 0.0350042
0.0352284 0.0354535 0.0356794 0.0359062 0.0361339 0.0363626 0.0365923 0.036823 0.0370549 0.0372878
0.0375219 0.0377571 0.0379935 0.0382313 0.0384704 0.0387109 0.0389527 0.0391962 0.0394413 0.0396881
0.0399365 0.0401865 0.0404385 0.0406924 0.0409484 0.0412064 0.0414665 0.0417291 0.0419942 0.042262
0.0425323 0.0428059 0.0430826 0.0433623 0.0436454 0.0439322 0.0442219 0.0445156 0.0448136 0.0451157
0.0454234 0.0457332 0.0460476 0.0463667 0.0466903 0.0470241 0.0471807 0.0473386 0.0474977 0.0476576
0.047735 0.0479412 0.0481488 0.0483576 0.0485676 0.0487861 0.0490861 0.0493882 0.0496919 0.0499946
0.0500854 0.0502051 0.0503245 0.0504435 0.0505622 0.0506855 0.0508819 0.0510763 0.0512684 0.0514583
0.051582 0.0517865 0.0519875 0.0521849 0.0523789 0.0525843 0.0526106 0.0526368 0.052663 0.052689