# vtk DataFile Version 2.0
tracks
ASCII
DATASET POLYDATA
POINTS 19469 float
-1.001 1e-07 0.0011 -0.99955 9.87108e-08 0.00110002 -0.9981 9.74196e-08 0.00110004 -0.99665 9.61263e-08
0.00110007 -0.9952 9.48309e-08 0.0011001 -0.99375 9.35335e-08 0.00110014 -0.99 9.01543e-08 0.00110024
-0.98625 8.67916e-08 0.00110034 -0.9825 8.3428e-08 0.00110044 -0.97875 8.00512e-08 0.00110054 -0.975
7.66497e-08 0.00110068 -0.97125 7.32089e-08 0.00110083 -0.9675 6.97814e-08 0.00110098 -0.96375 6.63528e-08
0.00110113 -0.96 6.29119e-08 0.00110128 -0.95625 5.94482e-08 0.00110145 -0.9525 5.59564e-08 0.00110162
-0.94875 5.24689e-08 0.00110179 -0.945 4.89801e-08 0.00110196 -0.94125 4.54791e-08 0.00110213 -0.9375
4.19555e-08 0.00110231 -0.93375 3.84013e-08 0.00110248 -0.93 3.48538e-08 0.00110266 -0.92625 3.13052e-08
0.00110284 -0.9225 2.77424e-08 0.00110302 -0.91875 2.41536e-08 0.0011032 -0.915 2.05341e-08 0.00110339
-0.91125 1.69179e-08 0.00110357 -0.9075 1.33005e-08 0.00110376 -0.90375 9.66803e-09 0.00110395 -0.9
6.00782e-09 0.00110414 -0.898779 4.80626e-09 0.0011042 -0.897557 3.60196e-09 0.00110426 -0.896336 2.39452e-09
0.00110433 -0.895114 1.18395e-09 0.00110439 -0.893923 1.83163e-17 0.00110446 -0.891388 -2.52506e-09 0.00110459
-0.888854 -5.06364e-09 0.00110473 -0.886319 -7.60716e-09 0.00110487 -0.883785 -1.01513e-08 0.001105 -0.88125
-1.26962e-08 0.00110514 -0.8775 -1.64598e-08 0.00110535 -0.87375 -2.02609e-08 0.00110556 -0.87 -2.4097e-08
0.00110577 -0.86625 -2.79521e-08 0.00110599 -0.8625 -3.18087e-08 0.0011062 -0.85875 -3.56602e-08 0.00110642
-0.855 -3.95618e-08 0.00110664 -0.85125 -4.35066e-08 0.00110687 -0.8475 -4.74748e-08 0.0011071 -0.84375
-5.14448e-08 0.00110733 -0.84 -5.54128e-08 0.00110756 -0.83625 -5.94361e-08 0.0011078 -0.8325 -6.35108e-08
0.00110804 -0.82875 -6.76135e-08 0.00110828 -0.825 -7.1718e-08 0.00110853 -0.82125 -7.5808e-08 0.00110877
-0.8175 -7.99756e-08 0.00110903 -0.81375 -8.4204e-08 0.00110928 -0.81 -8.84656e-08 0.00110955 -0.80625
-9.27292e-08 0.00110981 -0.8025 -9.69728e-08 0.00111007 -0.79875 -1.0131e-07 0.00111034 -0.795 -1.05717e-07
0.00111062 -0.79125 -1.10162e-07 0.0011109 -0.7875 -1.1461e-07 0.00111117 -0.78375 -1.19053e-07 0.00111145
-0.78 -1.23582e-07 0.00111174 -0.77625 -1.28189e-07 0.00111204 -0.7725 -1.32839e-07 0.00111234 -0.76875
-1.37492e-07 0.00111264 -0.765 -1.42139e-07 0.00111294 -0.76125 -1.46881e-07 0.00111325 -0.7575 -1.51708e-07
0.00111356 -0.75375 -1.56583e-07 0.00111388 -0.75 -1.61461e-07 0.0011142 -0.74625 -1.66297e-07 0.00111453
-0.7425 -1.71274e-07 0.00111486 -0.73875 -1.76346e-07 0.0011152 -0.735 -1.81471e-07 0.00111554 -0.73125
-1.86599e-07 0.00111588 -0.7275 -1.91675e-07 0.00111623 -0.72375 -1.96913e-07 0.00111658 -0.72 -2.02255e-07
0.00111695 -0.71625 -2.07656e-07 0.00111732 -0.7125 -2.1306e-07 0.00111769 -0.70875 -2.18402e-07 0.00111806
-0.705 -2.23925e-07 0.00111844 -0.70125 -2.29561e-07 0.00111883 -0.6975 -2.35261e-07 0.00111923 -0.69375
-2.40964e-07 0.00111963 -0.69 -2.4666e-07 0.00112002 -0.68625 -2.52492e-07 0.00112043 -0.6825 -2.58445e-07
0.00112085 -0.67875 -2.64467e-07 0.00112128 -0.675 -2.70493e-07 0.00112171 -0.67125 -2.76511e-07 0.00112214
-0.6675 -2.82678e-07 0.00112258 -0.66375 -2.88976e-07 0.00112303 -0.66 -2.95348e-07 0.00112349 -0.65625
-3.01725e-07 0.00112395 -0.6525 -3.07993e-07 0.00112441 -0.64875 -3.14522e-07 0.00112488 -0.645 -3.21188e-07
0.00112537 -0.64125 -3.27935e-07 0.00112586 -0.6375 -3.34688e-07 0.00112636 -0.63375 -3.41434e-07 0.00112685
-0.63 -3.48345e-07 0.00112736 -0.62625 -3.554e-07 0.00112789 -0.6225 -3.62538e-07 0.00112842 -0.61875
-3.69684e-07 0.00112895 -0.615 -3.76823e-07 0.00112948 -0.61125 -3.84138e-07 0.00113003 -0.6075 -3.91604e-07
0.00113059 -0.60375 -3.9916e-07 0.00113116 -0.6 -4.06723e-07 0.00113173 -0.59625 -4.14282e-07 0.00113231
-0.5925 -4.21877e-07 0.00113288 -0.58875 -4.29479e-07 0.00113345 -0.585 -4.37177e-07 0.00113403 -0.58125
-4.45032e-07 0.00113463 -0.5775 -4.52814e-07 0.00113525 -0.57375 -4.60856e-07 0.00113586 -0.57 -4.68906e-07
0.00113648 -0.56625 -4.77054e-07 0.0011371 -0.5625 -4.85363e-07 0.00113775 -0.55875 -4.93558e-07 0.00113841
-0.555 -5.02061e-07 0.00113907 -0.55125 -5.10575e-07 0.00113973 -0.5475 -5.19189e-07 0.0011404 -0.54375
-5.27964e-07 0.00114109 -0.54 -5.36893e-07 0.0011418 -0.53625 -5.45872e-07 0.00114251 -0.5325 -5.54862e-07
0.00114322 -0.52875 -5.63956e-07 0.00114394 -0.525 -5.73215e-07 0.00114468 -0.52125 -5.82252e-07 0.00114544
-0.5175 -5.91727e-07 0.0011462 -0.51375 -6.01214e-07 0.00114696 -0.51 -6.10813e-07 0.00114773 -0.50625
-6.20584e-07 0.00114852 -0.5025 -6.30067e-07 0.00114933 -0.49875 -6.40072e-07 0.00115014 -0.495 -6.50092e-07
0.00115095 -0.49125 -6.6023e-07 0.00115177 -0.4875 -6.70548e-07 0.00115261 -0.48375 -6.81054e-07 0.00115347
-0.48 -6.91627e-07 0.00115433 -0.47625 -7.02218e-07 0.0011552 -0.4725 -7.12932e-07 0.00115607 -0.46875
-7.23829e-07 0.00115696 -0.465 -7.34925e-07 0.00115787 -0.46125 -7.46096e-07 0.00115878 -0.4575 -7.57288e-07
0.00115969 -0.45375 -7.68603e-07 0.00116061 -0.45 -7.80099e-07 0.00116155 -0.44625 -7.91801e-07 0.0011625
-0.4425 -8.03588e-07 0.00116346 -0.43875 -8.15398e-07 0.00116441 -0.435 -8.27333e-07 0.00116538 -0.43125
-8.39449e-07 0.00116635 -0.4275 -8.50803e-07 0.00116734 -0.42375 -8.63231e-07 0.00116833 -0.42 -8.75685e-07
0.00116932 -0.41625 -8.88268e-07 0.00117032 -0.4125 -9.01033e-07 0.00117132 -0.40875 -9.12848e-07 0.00117233
-0.405 -9.25954e-07 0.00117334 -0.40125 -9.39089e-07 0.00117435 -0.3975 -9.52352e-07 0.00117536 -0.39375
-9.6579e-07 0.00117637 -0.39 -9.79477e-07 0.00117737 -0.38625 -9.93284e-07 0.00117838 -0.3825 -1.00713e-06
0.00117939 -0.37875 -1.02109e-06 0.00118039 -0.375 -1.03521e-06 0.00118137 -0.37125 -1.04959e-06 0.00118233
-0.3675 -1.06411e-06 0.0011833 -0.36375 -1.07866e-06 0.00118427 -0.36 -1.09332e-06 0.00118521 -0.35625
-1.10812e-06 0.00118611 -0.3525 -1.12108e-06 0.00118698 -0.34875 -1.13629e-06 0.00118785 -0.345 -1.15155e-06
0.00118872 -0.34125 -1.16689e-06 0.00118954 -0.3375 -1.18233e-06 0.0011903 -0.33375 -1.19804e-06 0.001191
-0.33 -1.21392e-06 0.00119169 -0.32625 -1.22985e-06 0.00119239 -0.3225 -1.24582e-06 0.00119301 -0.31875
-1.26184e-06 0.00119353 -0.315 -1.27813e-06 0.00119394 -0.31125 -1.29461e-06 0.00119435 -0.3075 -1.31113e-06
0.00119477 -0.30375 -1.32764e-06 0.00119507 -0.3 -1.34409e-06 0.00119521 -0.29625 -1.35698e-06 0.00119519
-0.2925 -1.37365e-06 0.00119494 -0.28875 -1.39015e-06 0.00119446 -0.285 -1.40655e-06 0.0011938 -0.28125
-1.42298e-06 0.00119315 -0.2775 -1.43526e-06 0.00119249 -0.27375 -1.45193e-06 0.00119151 -0.27 -1.46828e-06
0.00119018 -0.26625 -1.4844e-06 0.00118861 -0.2625 -1.50056e-06 0.00118705 -0.25875 -1.51173e-06 0.00118549
-0.255 -1.52798e-06 0.00118345 -0.25125 -1.54367e-06 0.00118092 -0.2475 -1.55897e-06 0.00117806 -0.24375
-1.5743e-06 0.00117521 -0.24 -1.59021e-06 0.00117237 -0.23625 -1.60543e-06 0.0011689 -0.2325 -1.61976e-06
0.00116479 -0.22875 -1.6335e-06 0.00116027 -0.225 -1.64727e-06 0.00115577 -0.22125 -1.65404e-06 0.00115129
-0.2175 -1.66699e-06 0.00114594 -0.21375 -1.67837e-06 0.00113974 -0.21 -1.68881e-06 0.00113303 -0.20625
-1.69927e-06 0.00112637 -0.2025 -1.70172e-06 0.00111976 -0.19875 -1.71116e-06 0.00111193 -0.195 -1.71839e-06
0.00110291 -0.19125 -1.72446e-06 0.0010933 -0.1875 -1.73059e-06 0.00108379 -0.18375 -1.73733e-06 0.00107437
-0.18 -1.74116e-06 0.00106343 -0.17625 -1.74197e-06 0.00105098 -0.1725 -1.7416e-06 0.00103802 -0.16875
-1.74136e-06 0.00102524 -0.165 -1.74205e-06 0.00101263 -0.16125 -1.73864e-06 0.000998244 -0.1575 -1.73111e-06
0.000982115 -0.15375 -1.7227e-06 0.000965749 -0.15 -1.71457e-06 0.000949685 -0.14625 -1.70755e-06 0.000933915
-0.1425 -1.69408e-06 0.000916148 -0.13875 -1.67428e-06 0.000896445 -0.135 -1.65448e-06 0.000877006 -0.13125
-1.63526e-06 0.000858025 -0.1275 -1.60599e-06 0.000839488 -0.12375 -1.58074e-06 0.000818884 -0.12 -1.54954e-06
0.000796624 -0.11625 -1.51931e-06 0.000775006 -0.1125 -1.49003e-06 0.00075401 -0.10875 -1.45171e-06 0.000733614
-0.105 -1.41279e-06 0.000711193 -0.10125 -1.36761e-06 0.000687811 -0.0975 -1.32397e-06 0.000665223 -0.0937499
-1.28182e-06 0.0006434 -0.0899999 -1.24151e-06 0.000622312 -0.0862499 -1.19177e-06 0.000599687 -0.0824999 -1.13964e-06
0.000577 -0.0787499 -1.08944e-06 0.000555176 -0.0749999 -1.04111e-06 0.000534181 -0.0712499 -9.94788e-07 0.000513981
-0.0674999 -9.41171e-07 0.000493695 -0.0637499 -8.88121e-07 0.000474056 -0.0599999 -8.37043e-07 0.000455186 -0.0562499
-7.87863e-07 0.000437055 -0.0524999 -7.35357e-07 0.000419632 -0.0487498 -6.72641e-07 0.000404551 -0.0449998 -6.11883e-07
0.000389994 -0.0412498 -5.53016e-07 0.000375945 -0.0374998 -4.9598e-07 0.000362386 -0.0337498 -4.40728e-07 0.000349302
-0.0299998 -3.67988e-07 0.000340674 -0.0262498 -2.96615e-07 0.000332251 -0.0224998 -2.26578e-07 0.000324029 -0.0187499
-1.57845e-07 0.000316002 -0.0169955 -1.26276e-07 0.000312336 -0.015241 -8.9846e-08 0.000310028 -0.0134866 -5.09438e-08
0.000308417 -0.0117322 -1.21404e-08 0.000306814 -0.0111819 -6.28215e-13 0.000306313 -0.00894552 4.92987e-08 0.000304283
-0.00670912 9.84424e-08 0.000302266 -0.00447273 1.47432e-07 0.000300261 -0.00223633 1.96269e-07 0.00029827 6.11904e-08
2.44954e-07 0.000296291 0.00375005 3.26265e-07 0.000292994 0.00750005 4.06984e-07 0.000289732 0.01125 4.87229e-07
0.000286506 0.015 5.67007e-07 0.000283315 0.01875 6.46325e-07 0.000280157 0.0225 7.37947e-07 0.000279116
0.02625 8.29385e-07 0.000278079 0.03 9.20882e-07 0.000277046 0.03375 1.01244e-06 0.000276016 0.0375
1.10406e-06 0.00027499 0.04125 1.21217e-06 0.0002745 0.045 1.32002e-06 0.000274011 0.04875 1.42807e-06
0.000273524 0.0525 1.53633e-06 0.000273037 0.05625 1.64479e-06 0.00027255 0.06 1.76902e-06 0.000272351
0.06375 1.89855e-06 0.000272153 0.0675 2.02839e-06 0.000271955 0.07125 2.15854e-06 0.000271757 0.075
2.289e-06 0.000271559 0.07875 2.4425e-06 0.000271511 0.0825 2.59579e-06 0.000271465 0.08625 2.74947e-06
0.000271418 0.09 2.90354e-06 0.000271371 0.09375 3.058e-06 0.000271325 0.0975 3.2336e-06 0.00027133
[...]
POINT_DATA 19469
FIELD attributes 3
age 1 19469 float
0 7.3016e-05 0.000146036 0.000219059 0.000292086 0.000365117 0.000553999 0.000742881 0.000931764 0.00112066 0.00130959
0.00149856 0.00168752 0.00187649 0.00206547 0.00225448 0.00244354 0.00263259 0.00282164 0.00301071 0.00319982
0.00338896 0.00357811 0.00376725 0.00395642 0.00414562 0.00433487 0.00452411 0.00471336 0.00490262 0.00509193
0.00515361 0.00521528 0.00527697 0.00533865 0.00539883 0.00552686 0.00565492 0.00578298 0.00591104 0.0060391
0.00622857 0.00641808 0.00660765 0.00679724 0.00698683 0.00717642 0.00736606 0.00755576 0.00774548 0.0079352
0.00812493 0.00831471 0.00850454 0.00869441 0.00888428 0.00907414 0.00926407 0.00945406 0.00964407 0.00983409
0.0100241 0.0102142 0.0104043 0.0105945 0.0107847 0.0109749 0.0111652 0.0113555 0.0115458 0.0117362
0.0119266 0.012117 0.0123075 0.0124981 0.0126886 0.0128792 0.0130698 0.0132606 0.0134513 0.0136421
0.0138329 0.0140237 0.0142147 0.0144056 0.0145966 0.0147876 0.0149787 0.0151699 0.0153611 0.0155524
0.0157436 0.015935 0.0161264 0.0163179 0.0165094 0.0167009 0.0168926 0.0170843 0.0172761 0.0174679
0.0176597 0.0178516 0.0180437 0.0182358 0.0184279 0.01862 0.0188123 0.0190047 0.0191971 0.0193896
0.019582 0.0197747 0.0199674 0.0201603 0.0203531 0.020546 0.0207388 0.0209317 0.0211246 0.0213177
0.021511 0.0217043 0.0218975 0.0220909 0.0222845 0.0224782 0.0226719 0.0228656 0.0230595 0.0232535
0.0234477 0.023642 0.0238362 0.0240306 0.0242252 0.0244199 0.0246147 0.0248095 0.0250045 0.0251996
0.025395 0.0255904 0.0257858 0.0259814 0.0261772 0.0263733 0.0265693 0.0267654 0.0269617 0.0271582
0.027355 0.0275519 0.0277487 0.0279457 0.0281431 0.0283407 0.0285383 0.028736 0.0289339 0.0291321
0.0293306 0.0295292 0.0297278 0.0299266 0.0301258 0.0303253 0.0305249 0.0307245 0.0309243 0.0311246
0.0313253 0.0315259 0.0317266 0.0319276 0.0321291 0.0323309 0.0325328 0.0327347 0.032937 0.0331397
0.0333429 0.0335462 0.0337494 0.033953 0.0341571 0.0343618 0.0345664 0.0347711 0.0349762 0.0351818
0.035388 0.0355942 0.0358004 0.036007 0.0362142 0.036422 0.0366304 0.0368394 0.0370488 0.0372582
0.0374676 0.0376776 0.0378882 0.0380992 0.0383101 0.038521 0.0387325 0.0389446 0.0391569 0.0393693
0.0395815 0.0397942 0.0400074 0.0402208 0.040434 0.0406472 0.0408607 0.0410745 0.0412883 0.041502
0.0417155 0.0419291 0.0421426 0.0423561 0.0425692 0.0427821 0.0429946 0.0432067 0.0434184 0.0436297
0.0438407 0.0440509 0.04426 0.0444687 0.0446769 0.0448848 0.0450912 0.045296 0.0455004 0.0457043
0.0459079 0.0461093 0.0463088 0.0465079 0.0467067 0.0469052 0.0471009 0.0472947 0.0474883 0.0476817
0.0478749 0.0480648 0.0482533 0.0484417 0.0486302 0.0488185 0.0490033 0.0491875 0.0493718 0.0495563
0.0497409 0.0499221 0.0501036 0.0502852 0.0504671 0.0506492 0.0508291 0.0510093 0.0511896 0.0513701
0.0514546 0.0515389 0.051623 0.0517072 0.0517336 0.051841 0.0519483 0.0520558 0.0521632 0.0522706
0.0524509 0.0526312 0.0528115 0.052992 0.0531725 0.0533532 0.0535338 0.0537145 0.0538952 0.0540759
0.054257 0.054438 0.0546191 0.0548001 0.0549812 0.0551626 0.055344 0.0555254 0.0557069 0.0558883
0.05607 0.0562517 0.0564335 0.0566152 0.0567969 0.0569789 0.0571609 0.057343 0.057525 0.057707
0.0578893 0.0580716 0.0582539 0.0584362 0.0586185 0.0588011 0.0589837 0.0591663 0.0593489 0.0595315
0.0597144 0.0598972 0.0600801 0.060263 0.0604459 0.0606291 0.0608123 0.0609955 0.0611787 0.0613619
0.0615454 0.0617289 0.0619124 0.0620958 0.0622793 0.0624631 0.0626469 0.0628307 0.0630145 0.0631983
0.0633823 0.0635664 0.0637505 0.0639345 0.0641186 0.0643029 0.0644872 0.0646716 0.0648559 0.0650402
0.0652248 0.0654093 0.0655939 0.0657784 0.065963 0.0661478 0.0663326 0.0665173 0.0667021 0.0668869
0.0670719 0.067257 0.0674421 0.0676273 0.0678124 0.0679976 0.0681829 0.0683682 0.0685535 0.0687388
0.0689241 0.0691095 0.069295 0.0694804 0.0696659 0.0698513 0.0700369 0.0702224 0.070408 0.0705936
0.0707791 0.0709648 0.0711505 0.0713361 0.0715218 0.0717075 0.0718932 0.072079 0.0722647 0.0724505
0.0726362 0.072822 0.0730079 0.0731937 0.0733795 0.0735653 0.0737511 0.073937 0.0741228 0.0743087
0.0744946 0.0746804 0.0748663 0.0750522 0.075238 0.0754239 0.0756098 0.0757957 0.0759815 0.0761674
0.0763533 0.0765391 0.076725 0.0769108 0.0770967 0.0772825 0.0774684 0.0776542 0.07784 0.0780258
0.0782116 0.0783974 0.0785831 0.0787689 0.0789547 0.0791405 0.0793262 0.0795119 0.0796976 0.0798834
0.0800691 0.0802548 0.0804405 0.0806262 0.080812 0.0809977 0.0811834 0.0813691 0.0815549 0.0817406
0.0819263 0.082112 0.0822978 0.0824835 0.0826692 0.082855 0.0830407 0.0832265 0.0834123 0.083598
0.0837838 0.0839697 0.0841555 0.0843413 0.0845271 0.084713 0.0848989 0.0850847 0.0852706 0.0854565
0.0856425 0.0858284 0.0860143 0.0862003 0.0863862 0.0865722 0.0867582 0.0869443 0.0871303 0.0873163
0.0875023 0.0876884 0.0878745 0.0880605 0.0882466 0.0884327 0.0886188 0.088805 0.0889911 0.0891772
0.0893634 0.0895495 0.0897357 0.0899219 0.090108 0.0902942 0.0904805 0.0906667 0.0908529 0.0910391
0.0912254 0.0914116 0.0915979 0.0917841 0.0919704 0.0921567 0.092343 0.0925293 0.0927156 0.0929019
0.0930883 0.0932747 0.093461 0.0936474 0.0938337 0.0940201 0.0942065 0.0943929 0.0945793 0.0947657
0.0949521 0.0951386 0.095325 0.0955114 0.0956979 0.0958844 0.0960709 0.0962573 0.0964438 0.0966303
0.0968168 0.0970034 0.09719 0.0973766 0.0975632 0.0977498 0.0979364 0.0981231 0.0983097 0.0984964
0.098683 0.0988698 0.0990565 0.0992432 0.0994299 0.0996167 0.0998034 0.0999902 0.100177 0.100364
0.10055 0.100737 0.100924 0.101111 0.101298 0.101484 0.101671 0.101858 0.102045 0.102232
0.102419 0.102606 0.102793 0.10298 0.103167 0.103354 0.103541 0.103729 0.103916 0.104103
0.104291 0.104478 0.104666 0.104854 0.105042 0.105229 0.105417 0.105606 0.105794 0.105982
0.10617 0.106359 0.106548 0.106737 0.106925 0.107114 0.107304 0.107493 0.107682 0.107872
0.108061 0.108251 0.108441 0.10863 0.10882 0.10901 0.1092 0.109391 0.109581 0.109771
0.109961 0.110152 0.110343 0.110533 0.110724 0.110914 0.111105 0.111296 0.111487 0.111677
0.111868 0.112059 0.11225 0.11244 0.112631 0.112822 0.113013 0.113204 0.113394 0.113585
0.113776 0.113967 0.114158 0.114349 0.11454 0.11473 0.114921 0.115112 0.115303 0.115494
0.115685 0.115876 0.116066 0.116257 0.116448 0.116639 0.11683 0.117021 0.117211 0.117402
0.117593 0.117784 0.117974 0.118165 0.118356 0.118546 0.118737 0.118928 0.119119 0.119309
0.1195 0.119691 0.119881 0.120072 0.120262 0.120453 0.120644 0.120834 0.121025 0.121215
0.121406 0.121596 0.121787 0.121977 0.122168 0.122358 0.122549 0.122739 0.12293 0.12312
0.123311 0.123501 0.123692 0.123882 0.124072 0.124263 0.124453 0.124643 0.124834 0.125024
0.125214 0.125405 0.125595 0.125785 0.125975 0.126166 0.126356 0.126546 0.126736 0.126927
0.127117 0.127307 0.127497 0.127687 0.127878 0.128068 0.128258 0.128448 0.128638 0.128828
0.129018 0.129208 0.129398 0.129588 0.129778 0.129968 0.130158 0.130348 0.130538 0.130728
0.130918 0.131108 0.131298 0.131487 0.131677 0.131867 0.132057 0.132247 0.132436 0.132626
0.132816 0.133005 0.133195 0.133385 0.133574 0.133764 0.133954 0.134143 0.134333 0.134522
0.134712 0.134901 0.135091 0.13528 0.13547 0.135659 0.135849 0.136038 0.136227 0.136417
0.136606 0.136795 0.136985 0.137174 0.137363 0.137552 0.137742 0.137931 0.13812 0.138309
0.138498 0.138687 0.138877 0.139066 0.139255 0.139444 0.139633 0.139822 0.140011 0.1402
0.140389 0.140578 0.140767 0.140956 0.141145 0.141334 0.141522 0.141711 0.1419 0.142089
0.142278 0.142467 0.142656 0.142844 0.143033 0.143222 0.143411 0.143599 0.143788 0.143977
0.144165 0.144354 0.144543 0.144731 0.14492 0.145108 0.145297 0.145486 0.145674 0.145863
0.146051 0.14624 0.146429 0.146617 0.146806 0.146994 0.147183 0.147371 0.14756 0.147748
0.147936 0.148125 0.148313 0.148502 0.14869 0.148878 0.149067 0.149255 0.149444 0.149632
0.14982 0.150009 0.150197 0.150386 0.150574 0.150762 0.15095 0.151139 0.151327 0.151515
0.151892 0.152268 0.152644 0.15302 0.153396 0.154147 0.154898 0.155648 0.156399 0.15715
0.15865 0.160151 0.161651 0.163152 0.164652 0.166152 0.167652 0.169153 0.170653 0.172153
0.175153 0.178153 0.181153 0.184154 0.187154 0.193154 0.199154 0.205154 0.211154 0.217154
0.223154 0.229154 0.235154 0.241154 0.247154 0.253154 0.259154 0.265155 0.271155 0.277155
0.283155 0.289155 0.295155 0.301155 0.307155 0.313155 0.319155 0.325155 0.331155 0.337155
0.343155 0.349155 0.355155 0.361155 0.367155 0.373155 0.379155 0.385155 0.391155 0.397155
0.403155 0.403193 0 7.36901e-05 0.000147384 0.000221082 0.000294784 0.00036849 0.000559121 0.000749786
0.000940485 0.00113122 0.00132198 0.00151279 0.00170362 0.00189449 0.0020854 0.00227634 0.00230711 0.00233788
0.00236866 0.00239943 0.0024302 0.00259043 0.00275069 0.00291098 0.0030713 0.00323164 0.0034228 0.00361401
0.00380526 0.00399655 0.00418788 0.00437925 0.00457066 0.00476212 0.00495362 0.00514516 0.00533675 0.00552839
0.00572007 0.0059118 0.00610357 0.00629539 0.00648726 0.00667918 0.00687115 0.00706318 0.00725525 0.00744737
0.00763955 0.00783178 0.00802407 0.00821641 0.00840881 0.00860126 0.00879378 0.00898635 0.00917898 0.00937167
0.00956443 0.00975724 0.00995012 0.0101431 0.0103361 0.0105291 0.0107223 0.0109155 0.0111088 0.0113021
0.0114956 0.011689 0.0118826 0.0120763 0.01227 0.0124638 0.0126576 0.0128516 0.0130456 0.0132398
0.013434 0.0136282 0.0138226 0.0140171 0.0142116 0.0144063 0.014601 0.0147958 0.0149907 0.0151858
0.0153809 0.0155761 0.0157714 0.0159668 0.0161624 0.016358 0.0165537 0.0167496 0.0169456 0.0171416
0.0173378 0.0175341 0.0177306 0.0179271 0.0181238 0.0183206 0.0185176 0.0187146 0.0189118 0.0191092
0.0193067 0.0195043 0.0197021 0.0199 0.020098 0.0202962 0.0204946 0.0206931 0.0208918 0.0210907
0.0212897 0.0214889 0.0216882 0.0218878 0.0220875 0.0222874 0.0224875 0.0226877 0.0228882 0.0230889
0.0232897 0.0234908 0.0236921 0.0238936 0.0240953 0.0242973 0.0244994 0.0247018 0.0249045 0.0251073
0.0253105 0.0255138 0.0257175 0.0259213 0.0261255 0.0263299 0.0265347 0.0267397 0.0269449 0.0271505
0.0273564 0.0275626 0.0277691 0.027976 0.0281831 0.0283906 0.0285985 0.0288067 0.0290152 0.0292242
0.0294335 0.0296432 0.0298533 0.0300638 0.0302747 0.030486 0.0306978 0.03091 0.0311226 0.0313357
0.0315493 0.0317634 0.031978 0.0321931 0.0324087 0.0326248 0.0328415 0.0330587 0.0332765 0.0334949
0.0337139 0.0339335 0.0341537 0.0343746 0.0345961 0.0348183 0.0350413 0.0352649 0.0354892 0.0357142
0.0359401 0.0361667 0.0363941 0.0366223 0.0368514 0.0370813 0.0373122 0.0375439 0.0377765 0.03801
0.0382446 0.0384801 0.0387166 0.0389541 0.0391927 0.0394325 0.0396733 0.0399152 0.0401583 0.0404024
0.0406478 0.0408943 0.0411421 0.0413912 0.0416415 0.0418932 0.0421461 0.0424005 0.042656 0.0429126
0.0431705 0.0434296 0.0436905 0.0439525 0.0442157 0.04448 0.0447454 0.0450128 0.0452807 0.0455491
0.045818 0.0460874 0.0463593 0.0464874 0.0466155 0.0467434 0.0468713 0.0469514 0.0471046 0.0472577
0.0474105 0.0475632 0.047717 0.0479878 0.0482569 0.0485241 0.0487895 0.0490579 0.0492044 0.0493497
0.0494938 0.0496368 0.049747 0.0498672 0.0499866 0.0501052 0.050223 0.0503411 0.0505885 0.0508308
0.0510682 0.0513008 0.05153 0.0515456 0.0515611 0.0515767 0.0515922 0.0516077 0.0518142 0.0520161
0.0522136 0.052407 0.0525942 0.0527057 0.0528155 0.0529236 0.0530303 0.0531644 0.0532387 0.0533123
0.0533853 0.0534576 0.0535288 0.0537032 0.053874 0.0540413 0.0542053 0.054363 0.0545015 0.0546386
0.0547741 0.0549081 0.0551292 0.0551441 0.0551589 0.0551737 0.0551885 0.0552054 0.0553368 0.0554675
0.0555978 0.0557275 0.0558559 0.0559989 0.056142 0.0562852 0.0564286 0.0565718 0.0567152 0.0568588
0.0570028 0.0571472 0.0572919 0.057437 0.0575824 0.0577282 0.0578744 0.0580209 0.0580382 0.0580556
0.0580729 0.0580903 0.0581065 0.0582364 0.0583665 0.0584969 0.0586276 0.0587585 0.0589069 0.0590557
0.0592048 0.0593542 0.0595038 0.0596538 0.0598041 0.0599547 0.0601056 0.0602568 0.0604082 0.06056
0.0607121 0.0608645 0.0610172 0.0611703 0.0613236 0.0614773 0.0616313 0.0617856 0.0619402 0.0620952
0.0622505 0.0624062 0.0625622 0.0627186 0.0628752 0.0630323 0.0631897 0.0633474 0.0635055 0.0636639
0.0638226 0.0639818 0.0641412 0.064301 0.0644611 0.0646216 0.0647824 0.0649435 0.065105 0.0652668
0.0654289 0.0655913 0.0657541 0.0659171 0.0660805 0.0662441 0.0664081 0.0665723 0.0667369 0.0669018
0.0670669 0.0672323 0.0673979 0.0675639 0.0677301 0.0678965 0.0680633 0.0682302 0.0683975 0.0685649
0.0687327 0.0689006 0.0690688 0.0692372 0.0694058 0.0695746 0.0697437 0.0699129 0.0700824 0.0702521
0.0704219 0.070592 0.0707623 0.0709327 0.0711033 0.071274 0.071445 0.0716161 0.0717873 0.0719588
0.0721303 0.0723021 0.0724739 0.0726459 0.0728181 0.0729903 0.0731627 0.0733352 0.0735078 0.0736805
0.0738534 0.0740263 0.0741993 0.0743724 0.0745456 0.0747188 0.0748921 0.0750655 0.075239 0.0754125
0.075586 0.0757596 0.0759333 0.0761069 0.0762806 0.0764542 0.0766279 0.0768016 0.0769753 0.077149
0.0773226 0.0774963 0.0776699 0.0778435 0.0780171 0.0781906 0.078364 0.0785375 0.0787109 0.0788842
0.0790575 0.0792308 0.079404 0.0795771 0.0797502 0.0799232 0.0800962 0.0802691 0.080442 0.0806149
0.0807878 0.0809606 0.0811335 0.0813063 0.0814791 0.0816519 0.0818247 0.0819976 0.0821705 0.0823434
0.0825165 0.0826895 0.0828626 0.0830358 0.083209 0.0833823 0.0835557 0.0837292 0.0839028 0.0840765
0.0842503 0.0844242 0.0845981 0.0847722 0.0849464 0.0851206 0.085295 0.0854695 0.0856441 0.0858188
0.0859936 0.0861685 0.0863435 0.0865187 0.0866939 0.0868691 0.0870445 0.08722 0.0873956 0.0875713
0.0877471 0.087923 0.088099 0.088275 0.0884512 0.0886274 0.0888037 0.0889801 0.0891566 0.0893332
0.0895099 0.0896867 0.0898635 0.0900405 0.0902175 0.0903946 0.0905718 0.090749 0.0909264 0.0911039
0.0912815 0.0914591 0.0916368 0.0918146 0.0919925 0.0921705 0.0923485 0.0925267 0.092705 0.0928833
0.0930617 0.0932403 0.0934189 0.0935975 0.0937763 0.0939551 0.0941341 0.0943131 0.0944922 0.0946715
0.0948508 0.0950302 0.0952097 0.0953892 0.0955689 0.0957486 0.0959285 0.0961084 0.0962885 0.0964686
0.0966489 0.0968293 0.0970098 0.0971904 0.0973712 0.0975521 0.0977332 0.0979144 0.0980962 0.0982782
0.0984604 0.0986427 0.0988252 0.0990069 0.0991886 0.0993704 0.0995523 0.0997342 0.0999164 0.100099
0.100281 0.100463 0.100645 0.100828 0.10101 0.101193 0.101376 0.101559 0.101742 0.101925
0.102109 0.102294 0.102478 0.102663 0.102849 0.103034 0.103221 0.103408 0.103596 0.103785
0.103975 0.104166 0.104357 0.104549 0.104743 0.104937 0.105132 0.105329 0.105527 0.105726
0.105927 0.10613 0.106333 0.106538 0.106744 0.106952 0.107161 0.107372 0.107585 0.1078
0.108016 0.108235 0.108455 0.108676 0.1089 0.109125 0.109351 0.10958 0.109811 0.110044
0.110279 0.110515 0.110754 0.110994 0.111236 0.111479 0.111724 0.111971 0.11222 0.112471
0.112723 0.112976 0.113232 0.113489 0.113747 0.114006 0.114267 0.11453 0.114794 0.115059
0.115325 0.115592 0.11586 0.11613 0.1164 0.116672 0.116944 0.117218 0.117492 0.117767
0.118042 0.118318 0.118595 0.118873 0.119151 0.11943 0.119709 0.119989 0.120268 0.120549
0.120829 0.12111 0.121391 0.121672 0.121954 0.122235 0.122517 0.1228 0.123082 0.123364
0.123646 0.123928 0.12421 0.12439 0.124571 0.124751 0.124931 0.125104 0.125208 0.125311
0.125415 0.125518 0.125621 0.125903 0.126185 0.126466 0.126748 0.127029 0.127309 0.127589
0.127869 0.128149 0.128428 0.128707 0.128986 0.129265 0.129543 0.129821 0.130098 0.130375
0.130651 0.130927 0.131203 0.131478 0.131753 0.132029 0.132303 0.132578 0.132851 0.133124
0.133397 0.133669 0.133942 0.134213 0.134485 0.134757 0.135028 0.135299 0.135569 0.135839
0.136109 0.136378 0.136648 0.136916 0.137185 0.137453 0.137722 0.13799 0.138257 0.138524
0.138791 0.139058 0.139325 0.139547 0.13977 0.139992 0.140214 0.140456 0.140495 0.140534
0.140573 0.140612 0.140651 0.140916 0.14118 0.141444 0.141707 0.14197 0.142232 0.142495
0.142757 0.143019 0.14328 0.14354 0.143801 0.144061 0.144321 0.14458 0.144838 0.145097
0.145355 0.145613 0.14587 0.146126 0.146383 0.14664 0.146897 0.147152 0.147407 0.147662
0.147916 0.148171 0.148425 0.148677 0.148931 0.149185 0.149438 0.14969 0.149941 0.150193
0.150445 0.150696 0.150948 0.151197 0.151448 0.151699 0.151949 0.152199 0.152447 0.152697
0.152946 0.153195 0.153443 0.15369 0.153939 0.154187 0.154435 0.154683 0.154928 0.155176
0.155422 0.155669 0.155916 0.156161 0.156407 0.156653 0.156899 0.157145 0.157388 0.157633
0.157879 0.158124 0.158368 0.158611 0.158855 0.159099 0.159343 0.159587 0.159829 0.160072
0.160315 0.160557 0.1608 0.16104 0.161282 0.161524 0.161765 0.162006 0.162246 0.162487
0.162727 0.162967 0.163207 0.163446 0.163686 0.163925 0.164164 0.164402 0.16464 0.164878
0.165116 0.165354 0.165591 0.165777 0.165962 0.166147 0.166332 0.166464 0.166526 0.166587
0.166649 0.166711 0.166772 0.167239 0.167708 0.168161 0.168602 0.169029 0.169836 0.170642
0.171444 0.172242 0.173035 0.174565 0.176091 0.177616 0.179141 0.180665 0.182174 0.183688
0.1852 0.186711 0.188221 0.191221 0.194225 0.197226 0.200227 0.20327 0.209275 0.21528
0.221286 0.227291 0.233296 0.239297 0.2453 0.251303 0.257306 0.263309 0.269309 0.275312
0.281314 0.287317 0.293319 0.29932 0.305322 0.311324 0.317326 0.323328 0.329328 0.33533
0.341331 0.347333 0.353335 0.359335 0.365336 0.371338 0.377339 0.38334 0.389341 0.395342
0.401343 0.407344 0.413345 0.419346 0.421867 0 7.36661e-05 0.000147337 0.000221012 0.000294692
0.000368377 0.000558953 0.000749562 0.000940205 0.00113088 0.00132159 0.00151233 0.0017031 0.00189391 0.00208476
0.00227564 0.00231949 0.00236334 0.00240719 0.00245105 0.002495 0.00264208 0.00278918 0.0029363 0.00308345
0.00323061 0.00342171 0.00361285 0.00380403 0.00399524 0.0041865 0.0043778 0.00456914 0.00476052 0.00495194
0.00514341 0.00533492 0.00552647 0.00571807 0.00590972 0.00610141 0.00629314 0.00648493 0.00667676 0.00686864
0.00706057 0.00725255 0.00744459 0.00763667 0.00782881 0.00802099 0.00821324 0.00840553 0.00859789 0.0087903
0.00898276 0.00917528 0.00936787 0.00956051 0.00975321 0.00994598 0.0101388 0.0103317 0.0105246 0.0107177
0.0109108 0.0111039 0.0112971 0.0114904 0.0116838 0.0118772 0.0120707 0.0122643 0.0124579 0.0126517
0.0128455 0.0130394 0.0132333 0.0134274 0.0136215 0.0138157 0.01401 0.0142044 0.0143989 0.0145934
0.0147881 0.0149828 0.0151777 0.0153726 0.0155676 0.0157627 0.015958 0.0161533 0.0163487 0.0165443
0.0167399 0.0169357 0.0171315 0.0173275 0.0175236 0.0177198 0.0179161 0.0181126 0.0183092 0.0185059
0.0187027 0.0188996 0.0190967 0.0192939 0.0194913 0.0196888 0.0198864 0.0200842 0.0202821 0.0204802
0.0206785 0.0208769 0.0210754 0.0212741 0.021473 0.021672 0.0218712 0.0220706 0.0222702 0.02247
0.0226699 0.02287 0.0230703 0.0232708 0.0234716 0.0236725 0.0238736 0.0240749 0.0242765 0.0244783
0.0246803 0.0248825 0.025085 0.0252877 0.0254907 0.0256939 0.0258974 0.0261011 0.0263051 0.0265094
0.026714 0.0269188 0.027124 0.0273294 0.0275352 0.0277412 0.0279476 0.0281544 0.0283614 0.0285688
0.0287766 0.0289847 0.0291932 0.0294021 0.0296114 0.0298211 0.0298554 0.0298897 0.029924 0.0299583
0.029992 0.0301682 0.0303447 0.0305215 0.0306987 0.0308761 0.0310884 0.0313012 0.0315145 0.0317283
0.0319426 0.0321574 0.0323728 0.0325888 0.0328054 0.0330225 0.0332402 0.0334586 0.0336777 0.0338974
0.0341179 0.034339 0.0345609 0.0347835 0.035007 0.0352312 0.0354563 0.0356822 0.0359091 0.0361369
0.0363656 0.0365953 0.0368261 0.037058 0.037291 0.037525 0.0377603 0.0379968 0.0382346 0.0384737
0.0387142 0.0389561 0.0391997 0.0394448 0.0396917 0.0399401 0.0401902 0.0404422 0.0406961 0.0409522
0.0412103 0.0414704 0.041733 0.0419982 0.0422661 0.0425365 0.0428101 0.0430868 0.0433667 0.0436498
0.0439367 0.0442264 0.0445202 0.0448183 0.0451205 0.0454283 0.0457382 0.0460527 0.0463718 0.0466955
0.0470294 0.0471889 0.0473498 0.0475117 0.0476747 0.0477522 0.0479563 0.0481617 0.0483683 0.0485761
0.0487922 0.0490943 0.0493984 0.0497042 0.0500091 0.0500994 0.0502177 0.0503357 0.0504534 0.0505707
0.0506926 0.0508904 0.0510862 0.0512796 0.0514708 0.0515949 0.0517985 0.0519985 0.0521951 0.0523882
0.0525927 0.0526198 0.0526468 0.0526737 0.0527006 0.0527265 0.0529271 0.0531221 0.053312 0.053497