# vtk DataFile Version 2.0
tracks
ASCII
DATASET POLYDATA
POINTS 19699 float
-1.001 1e-07 0.0011 -0.99955 9.95247e-08 0.00110002 -0.9981 9.90472e-08 0.00110004 -0.99665 9.85677e-08
0.00110007 -0.9952 9.80861e-08 0.0011001 -0.99375 9.76024e-08 0.00110014 -0.99 9.63269e-08 0.00110023
-0.98625 9.50693e-08 0.00110033 -0.9825 9.38114e-08 0.00110043 -0.97875 9.25438e-08 0.00110054 -0.975
9.12579e-08 0.00110067 -0.97125 8.99364e-08 0.00110082 -0.9675 8.86316e-08 0.00110097 -0.96375 8.73264e-08
0.00110112 -0.96 8.60153e-08 0.00110127 -0.95625 8.46929e-08 0.00110143 -0.9525 8.33516e-08 0.0011016
-0.94875 8.20177e-08 0.00110177 -0.945 8.06833e-08 0.00110194 -0.94125 7.93392e-08 0.00110211 -0.9375
7.79767e-08 0.00110229 -0.93375 7.65809e-08 0.00110246 -0.93 7.51998e-08 0.00110264 -0.92625 7.38181e-08
0.00110282 -0.9225 7.24267e-08 0.001103 -0.91875 7.10168e-08 0.00110318 -0.915 6.95745e-08 0.00110336
-0.91125 6.81459e-08 0.00110354 -0.9075 6.67167e-08 0.00110373 -0.90375 6.52846e-08 0.00110391 -0.9
6.38473e-08 0.0011041 -0.89625 6.2392e-08 0.0011043 -0.8925 6.09458e-08 0.00110449 -0.88875 5.94956e-08
0.00110469 -0.885 5.8043e-08 0.0011049 -0.88125 5.65898e-08 0.0011051 -0.8775 5.51318e-08 0.0011053
-0.87375 5.36595e-08 0.00110551 -0.87 5.21682e-08 0.00110572 -0.86625 5.06667e-08 0.00110594 -0.8625
4.91646e-08 0.00110615 -0.85875 4.76583e-08 0.00110637 -0.855 4.61334e-08 0.00110659 -0.85125 4.4586e-08
0.00110682 -0.8475 4.30263e-08 0.00110704 -0.84375 4.1466e-08 0.00110727 -0.84 3.98959e-08 0.0011075
-0.83625 3.83192e-08 0.00110774 -0.8325 3.67265e-08 0.00110798 -0.82875 3.51249e-08 0.00110822 -0.825
3.35226e-08 0.00110847 -0.82125 3.19173e-08 0.00110871 -0.8175 3.03061e-08 0.00110896 -0.81375 2.86865e-08
0.00110922 -0.81 2.70619e-08 0.00110948 -0.80625 2.54365e-08 0.00110974 -0.8025 2.38088e-08 0.00111
-0.79875 2.21744e-08 0.00111026 -0.795 2.05316e-08 0.00111054 -0.79125 1.88838e-08 0.00111082 -0.7875
1.72351e-08 0.0011111 -0.78375 1.55813e-08 0.00111137 -0.78 1.39095e-08 0.00111166 -0.77625 1.22151e-08
0.00111195 -0.7725 1.05081e-08 0.00111225 -0.76875 8.80026e-09 0.00111255 -0.765 7.08914e-09 0.00111285
-0.76125 5.34631e-09 0.00111316 -0.7575 3.56926e-09 0.00111347 -0.75375 1.77325e-09 0.00111379 -0.75005
1.38793e-17 0.00111411 -0.75004 -4.75886e-12 0.00111411 -0.75003 -9.51774e-12 0.00111411 -0.75002 -1.42766e-11
0.00111411 -0.75001 -1.90355e-11 0.00111411 -0.75 -2.37944e-11 0.00111411 -0.74625 -1.82184e-09 0.00111443
-0.7425 -3.65805e-09 0.00111476 -0.73875 -5.53247e-09 0.0011151 -0.735 -7.42822e-09 0.00111544 -0.73125
-9.32512e-09 0.00111578 -0.7275 -1.12204e-08 0.00111613 -0.72375 -1.31571e-08 0.00111648 -0.72 -1.51322e-08
0.00111684 -0.71625 -1.7129e-08 0.00111721 -0.7125 -1.91272e-08 0.00111758 -0.70875 -2.11206e-08 0.00111795
-0.705 -2.31557e-08 0.00111833 -0.70125 -2.52262e-08 0.00111872 -0.6975 -2.73169e-08 0.00111911 -0.69375
-2.9409e-08 0.00111951 -0.69 -3.15012e-08 0.0011199 -0.68625 -3.36286e-08 0.00112031 -0.6825 -3.57894e-08
0.00112073 -0.67875 -3.79694e-08 0.00112116 -0.675 -4.01511e-08 0.00112158 -0.67125 -4.23326e-08 0.00112201
-0.6675 -4.45532e-08 0.00112245 -0.66375 -4.68103e-08 0.0011229 -0.66 -4.90887e-08 0.00112336 -0.65625
-5.1369e-08 0.00112382 -0.6525 -5.36315e-08 0.00112427 -0.64875 -5.59565e-08 0.00112475 -0.645 -5.83232e-08
0.00112523 -0.64125 -6.07144e-08 0.00112572 -0.6375 -6.31077e-08 0.00112622 -0.63375 -6.55006e-08 0.00112671
-0.63 -6.79421e-08 0.00112722 -0.62625 -7.0428e-08 0.00112774 -0.6225 -7.29403e-08 0.00112827 -0.61875
-7.5455e-08 0.0011288 -0.615 -7.79693e-08 0.00112933 -0.61125 -8.05341e-08 0.00112987 -0.6075 -8.31441e-08
0.00113044 -0.60375 -8.57814e-08 0.00113101 -0.6 -8.84214e-08 0.00113158 -0.59625 -9.10613e-08 0.00113215
-0.5925 -9.37101e-08 0.00113272 -0.58875 -9.63616e-08 0.00113329 -0.585 -9.90406e-08 0.00113387 -0.58125
-1.01765e-07 0.00113446 -0.5775 -1.04482e-07 0.00113508 -0.57375 -1.07259e-07 0.00113569 -0.57 -1.1004e-07
0.0011363 -0.56625 -1.12847e-07 0.00113693 -0.5625 -1.15698e-07 0.00113757 -0.55875 -1.18529e-07 0.00113823
-0.555 -1.21433e-07 0.00113889 -0.55125 -1.24341e-07 0.00113955 -0.5475 -1.27273e-07 0.00114022 -0.54375
-1.30245e-07 0.00114091 -0.54 -1.33253e-07 0.00114161 -0.53625 -1.36275e-07 0.00114232 -0.5325 -1.393e-07
0.00114303 -0.52875 -1.42348e-07 0.00114375 -0.525 -1.4543e-07 0.00114449 -0.52125 -1.48449e-07 0.00114524
-0.5175 -1.5158e-07 0.001146 -0.51375 -1.54715e-07 0.00114676 -0.51 -1.57871e-07 0.00114753 -0.50625
-1.61057e-07 0.00114832 -0.5025 -1.64155e-07 0.00114912 -0.49875 -1.67389e-07 0.00114993 -0.495 -1.70628e-07
0.00115074 -0.49125 -1.73886e-07 0.00115156 -0.4875 -1.77173e-07 0.0011524 -0.48375 -1.8049e-07 0.00115326
-0.48 -1.83826e-07 0.00115412 -0.47625 -1.87167e-07 0.00115498 -0.4725 -1.90528e-07 0.00115585 -0.46875
-1.93918e-07 0.00115674 -0.465 -1.9734e-07 0.00115765 -0.46125 -2.00783e-07 0.00115856 -0.4575 -2.04233e-07
0.00115947 -0.45375 -2.07694e-07 0.00116039 -0.45 -2.11169e-07 0.00116132 -0.44625 -2.14665e-07 0.00116227
-0.4425 -2.18184e-07 0.00116323 -0.43875 -2.2171e-07 0.00116418 -0.435 -2.25242e-07 0.00116514 -0.43125
-2.28778e-07 0.00116612 -0.4275 -2.32062e-07 0.00116711 -0.42375 -2.35639e-07 0.00116809 -0.42 -2.39223e-07
0.00116908 -0.41625 -2.42816e-07 0.00117008 -0.4125 -2.46417e-07 0.00117108 -0.40875 -2.49717e-07 0.00117209
-0.405 -2.5337e-07 0.0011731 -0.40125 -2.57031e-07 0.00117411 -0.3975 -2.60694e-07 0.00117511 -0.39375
-2.64354e-07 0.00117612 -0.39 -2.68033e-07 0.00117713 -0.38625 -2.71745e-07 0.00117813 -0.3825 -2.75465e-07
0.00117914 -0.37875 -2.79167e-07 0.00118014 -0.375 -2.82838e-07 0.00118112 -0.37125 -2.86504e-07 0.00118208
-0.3675 -2.90207e-07 0.00118305 -0.36375 -2.93919e-07 0.00118402 -0.36 -2.97592e-07 0.00118496 -0.35625
-3.01202e-07 0.00118587 -0.3525 -3.04212e-07 0.00118673 -0.34875 -3.07835e-07 0.0011876 -0.345 -3.11467e-07
0.00118847 -0.34125 -3.15039e-07 0.0011893 -0.3375 -3.18521e-07 0.00119006 -0.33375 -3.2196e-07 0.00119076
-0.33 -3.25441e-07 0.00119146 -0.32625 -3.28933e-07 0.00119215 -0.3225 -3.3234e-07 0.00119278 -0.31875
-3.35625e-07 0.0011933 -0.315 -3.38847e-07 0.00119372 -0.31125 -3.42115e-07 0.00119414 -0.3075 -3.45393e-07
0.00119455 -0.30375 -3.48505e-07 0.00119486 -0.3 -3.51383e-07 0.00119501 -0.29625 -3.53112e-07 0.001195
-0.2925 -3.55583e-07 0.00119476 -0.28875 -3.57767e-07 0.00119428 -0.285 -3.59742e-07 0.00119364 -0.28125
-3.61723e-07 0.001193 -0.2775 -3.62643e-07 0.00119235 -0.27375 -3.64443e-07 0.00119138 -0.27 -3.65925e-07
0.00119007 -0.26625 -3.67177e-07 0.00118852 -0.2625 -3.68434e-07 0.00118697 -0.25875 -3.68464e-07 0.00118543
-0.255 -3.69429e-07 0.0011834 -0.25125 -3.69947e-07 0.0011809 -0.2475 -3.70153e-07 0.00117806 -0.24375
-3.70362e-07 0.00117523 -0.24 -3.70703e-07 0.00117241 -0.23625 -3.70473e-07 0.00116896 -0.2325 -3.69624e-07
0.00116487 -0.22875 -3.68365e-07 0.00116038 -0.225 -3.67113e-07 0.0011559 -0.22125 -3.64303e-07 0.00115145
-0.2175 -3.62165e-07 0.00114614 -0.21375 -3.5897e-07 0.00113997 -0.21 -3.55139e-07 0.0011333 -0.20625
-3.51324e-07 0.00112668 -0.2025 -3.45868e-07 0.0011201 -0.19875 -3.40943e-07 0.00111231 -0.195 -3.34655e-07
0.00110334 -0.19125 -3.27668e-07 0.00109378 -0.1875 -3.20729e-07 0.00108431 -0.18375 -3.13943e-07 0.00107494
-0.18 -3.05476e-07 0.00106404 -0.17625 -2.95318e-07 0.00105164 -0.1725 -2.84522e-07 0.00103872 -0.16875
-2.73833e-07 0.00102599 -0.165 -2.63379e-07 0.00101343 -0.16125 -2.50735e-07 0.000999084 -0.1575 -2.35924e-07
0.000983004 -0.15375 -2.20689e-07 0.000966681 -0.15 -2.05665e-07 0.000950658 -0.14625 -1.90948e-07 0.00093493
-0.1425 -1.72477e-07 0.000917203 -0.13875 -1.50326e-07 0.000897542 -0.135 -1.28223e-07 0.000878137 -0.13125
-1.06516e-07 0.000859188 -0.12762 -8.52079e-08 0.000841273 -0.123989 -6.13749e-08 0.000821419 -0.120359 -3.46352e-08
0.000799855 -0.116728 -8.47824e-09 0.000778893 -0.115522 2.38869e-11 0.000772123 -0.114918 4.25462e-09 0.000768761
-0.114313 8.4704e-09 0.000765415 -0.113709 1.26713e-08 0.000762084 -0.113104 1.68574e-08 0.000758769 -0.1125
2.10288e-08 0.000755469 -0.10875 4.68271e-08 0.000735088 -0.105 7.86579e-08 0.000712684 -0.10125 1.13943e-07
0.000689312 -0.0975 1.48289e-07 0.000666733 -0.0937499 1.81733e-07 0.000644916 -0.0899999 2.13078e-07 0.000623835
-0.0862499 2.48945e-07 0.000601216 -0.0824999 2.85436e-07 0.000578526 -0.0787499 3.20851e-07 0.000556697 -0.0749999
3.55234e-07 0.000535695 -0.0712499 3.86234e-07 0.000515489 -0.0674999 4.18435e-07 0.00049519 -0.0637499 4.49666e-07
0.000475535 -0.0599999 4.79992e-07 0.000456647 -0.0562499 5.09447e-07 0.000438497 -0.0524999 5.38102e-07 0.000421056
-0.0487498 5.71111e-07 0.000405952 -0.0449998 6.03298e-07 0.000391371 -0.0412498 6.34692e-07 0.000377299 -0.0374998
6.6532e-07 0.000363717 -0.0337498 6.91075e-07 0.000350609 -0.0299998 7.25575e-07 0.00034194 -0.0262498 7.59556e-07
0.000333476 -0.0224998 7.93033e-07 0.000325214 -0.0187499 8.26017e-07 0.000317149 -0.0149999 8.53679e-07 0.000309277
-0.0112499 8.85467e-07 0.000305807 -0.0074999 9.17135e-07 0.000302374 -0.00374991 9.48685e-07 0.000298979 6.11905e-08
9.80119e-07 0.00029562 0.00375005 1.01117e-06 0.000292298 0.00750005 1.04159e-06 0.000289013 0.01125 1.07187e-06
0.000285764 0.015 1.10202e-06 0.00028255 0.01875 1.13204e-06 0.000279371 0.0225 1.15999e-06 0.000278304
0.02625 1.18749e-06 0.000277242 0.03 1.21502e-06 0.000276184 0.03375 1.24258e-06 0.00027513 0.0375
1.27017e-06 0.00027408 0.04125 1.29948e-06 0.000273568 0.045 1.32825e-06 0.000273057 0.04875 1.35707e-06
0.000272548 0.0525 1.38595e-06 0.000272039 0.05625 1.41489e-06 0.000271532 0.06 1.44207e-06 0.000271311
0.06375 1.47359e-06 0.00027109 0.0675 1.50517e-06 0.00027087 0.07125 1.53683e-06 0.00027065 0.075
1.56857e-06 0.00027043 0.07875 1.60401e-06 0.000270359 0.0825 1.639e-06 0.000270289 0.08625 1.67408e-06
0.000270218 0.09 1.70924e-06 0.000270147 0.09375 1.74449e-06 0.000270077 0.0975 1.78394e-06 0.000270058
0.10125 1.82305e-06 0.00027004 0.105 1.86225e-06 0.000270022 0.10875 1.90156e-06 0.000270004 0.1125
[...]
POINT_DATA 19699
FIELD attributes 3
age 1 19699 float
0 7.30154e-05 0.000146034 0.000219057 0.000292084 0.000365114 0.000553994 0.000742875 0.000931755 0.00112065 0.00130958
0.00149854 0.00168751 0.00187647 0.00206545 0.00225446 0.00244351 0.00263256 0.00282161 0.00301068 0.00319978
0.00338893 0.00357807 0.00376721 0.00395637 0.00414558 0.00433482 0.00452406 0.00471331 0.00490257 0.00509188
0.00528123 0.00547062 0.00566006 0.00584953 0.00603899 0.00622846 0.00641797 0.00660753 0.00679712 0.00698671
0.0071763 0.00736594 0.00755563 0.00774535 0.00793507 0.00812479 0.00831457 0.0085044 0.00869426 0.00888412
0.00907399 0.00926391 0.00945389 0.00964391 0.00983392 0.0100239 0.010214 0.0104042 0.0105943 0.0107845
0.0109747 0.011165 0.0113553 0.0115456 0.011736 0.0119264 0.0121168 0.0123073 0.0124979 0.0126859
0.0126864 0.0126869 0.0126874 0.0126879 0.0126884 0.012879 0.0130696 0.0132603 0.0134511 0.0136418
0.0138326 0.0140235 0.0142144 0.0144054 0.0145964 0.0147874 0.0149784 0.0151696 0.0153608 0.0155521
0.0157433 0.0159347 0.0161261 0.0163176 0.0165091 0.0167006 0.0168922 0.017084 0.0172757 0.0174675
0.0176593 0.0178512 0.0180433 0.0182354 0.0184275 0.0186196 0.0188119 0.0190042 0.0191967 0.0193892
0.0195816 0.0197742 0.019967 0.0201598 0.0203527 0.0205455 0.0207384 0.0209312 0.0211241 0.0213172
0.0215105 0.0217038 0.021897 0.0220904 0.0222839 0.0224777 0.0226714 0.0228651 0.0230589 0.023253
0.0234472 0.0236414 0.0238356 0.02403 0.0242246 0.0244193 0.0246141 0.0248089 0.0250038 0.025199
0.0253944 0.0255898 0.0257852 0.0259807 0.0261765 0.0263726 0.0265687 0.0267647 0.026961 0.0271575
0.0273543 0.0275511 0.0277479 0.027945 0.0281423 0.0283399 0.0285376 0.0287352 0.0289331 0.0291313
0.0293298 0.0295284 0.0297269 0.0299257 0.0301249 0.0303244 0.030524 0.0307236 0.0309234 0.0311237
0.0313243 0.031525 0.0317256 0.0319266 0.0321281 0.0323299 0.0325318 0.0327337 0.0329359 0.0331387
0.0333418 0.0335451 0.0337483 0.0339519 0.034156 0.0343606 0.0345653 0.0347699 0.034975 0.0351806
0.0353868 0.0355929 0.0357991 0.0360057 0.0362129 0.0364207 0.0366291 0.0368381 0.0370475 0.0372569
0.0374662 0.0376762 0.0378868 0.0380977 0.0383087 0.0385196 0.0387311 0.0389431 0.0391555 0.0393678
0.03958 0.0397927 0.0400059 0.0402193 0.0404325 0.0406457 0.0408592 0.041073 0.0412869 0.0415006
0.0417141 0.0419276 0.0421412 0.0423547 0.0425678 0.0427808 0.0429933 0.0432054 0.0434171 0.0436285
0.0438396 0.0440497 0.044259 0.0444677 0.044676 0.0448839 0.0450903 0.0452952 0.0454997 0.0457037
0.0459008 0.0460959 0.0462892 0.046482 0.046546 0.046578 0.0466101 0.0466421 0.0466741 0.0467061
0.0469047 0.0471004 0.0472943 0.047488 0.0476815 0.0478748 0.0480647 0.0482533 0.0484418 0.0486303
0.0488187 0.0490035 0.0491878 0.0493722 0.0495567 0.0497414 0.0499226 0.0501041 0.0502858 0.0504677
0.0506498 0.0508298 0.0510099 0.0511903 0.0513708 0.0515515 0.0517314 0.0519115 0.0520916 0.0522718
0.0524521 0.0526325 0.0528129 0.0529934 0.053174 0.0533547 0.0535354 0.0537161 0.0538969 0.0540777
0.0542587 0.0544398 0.0546209 0.0548021 0.0549832 0.0551647 0.0553461 0.0555276 0.055709 0.0558905
0.0560723 0.0562541 0.0564358 0.0566176 0.0567994 0.0569815 0.0571636 0.0573456 0.0575277 0.0577098
0.0578921 0.0580745 0.0582569 0.0584392 0.0586216 0.0588043 0.0589869 0.0591696 0.0593522 0.0595349
0.0597178 0.0599008 0.0600837 0.0602667 0.0604496 0.0606329 0.0608162 0.0609994 0.0611827 0.061366
0.0615495 0.0617331 0.0619167 0.0621002 0.0622838 0.0624676 0.0626515 0.0628353 0.0630192 0.063203
0.0633872 0.0635713 0.0637554 0.0639395 0.0641237 0.0643081 0.0644924 0.0646768 0.0648612 0.0650456
0.0652302 0.0654148 0.0655994 0.065784 0.0659686 0.0661535 0.0663383 0.0665231 0.0667079 0.0668927
0.0670778 0.0672629 0.0674481 0.0676333 0.0678185 0.0680037 0.068189 0.0683743 0.0685597 0.068745
0.0689304 0.0691158 0.0693013 0.0694868 0.0696722 0.0698577 0.0700433 0.0702289 0.0704145 0.0706001
0.0707857 0.0709714 0.0711571 0.0713428 0.0715285 0.0717142 0.0718999 0.0720857 0.0722715 0.0724573
0.0726431 0.0728289 0.0730147 0.0732006 0.0733864 0.0735723 0.0737582 0.073944 0.0741299 0.0743158
0.0745017 0.0746876 0.0748735 0.0750594 0.0752453 0.0754312 0.0756171 0.075803 0.0759889 0.0761749
0.0763608 0.0765466 0.0767325 0.0769184 0.0771043 0.0772902 0.077476 0.0776619 0.0778477 0.0780336
0.0782195 0.0784053 0.0785911 0.0787769 0.0789627 0.0790469 0.0791311 0.0792153 0.0792995 0.0793506
0.0794588 0.079567 0.0796752 0.0797834 0.0798916 0.0800774 0.0802631 0.0804489 0.0806347 0.0808204
0.0810062 0.0811919 0.0813777 0.0815635 0.0817493 0.081935 0.0821208 0.0823066 0.0824924 0.0826781
0.082864 0.0830498 0.0832356 0.0834214 0.0836072 0.0837931 0.0839789 0.0841648 0.0843507 0.0845366
0.0847225 0.0849084 0.0850944 0.0852803 0.0854663 0.0856523 0.0858383 0.0860243 0.0862103 0.0863963
0.0865824 0.0867685 0.0869545 0.0871406 0.0873267 0.0875128 0.087699 0.0878851 0.0880712 0.0882574
0.0884436 0.0886298 0.088816 0.0890022 0.0891884 0.0893747 0.0895609 0.0897472 0.0899334 0.0901197
0.090306 0.0904923 0.0906786 0.0908649 0.0910512 0.0912376 0.091424 0.0916103 0.0917967 0.091983
0.0921694 0.0923559 0.0925423 0.0927287 0.0929151 0.0931015 0.093288 0.0934744 0.0936609 0.0938473
0.0940338 0.0942203 0.0944068 0.0945933 0.0947798 0.0949664 0.0951529 0.0953395 0.095526 0.0957126
0.0958992 0.0960858 0.0962724 0.096459 0.0966456 0.0968323 0.0970191 0.0972058 0.0973926 0.0975793
0.0977661 0.0979529 0.0981398 0.0983266 0.0985135 0.0987003 0.0988873 0.0990743 0.0992613 0.0994482
0.0996352 0.0998224 0.10001 0.100197 0.100384 0.100571 0.100758 0.100946 0.101133 0.10132
0.101508 0.101695 0.101883 0.102071 0.102258 0.102446 0.102634 0.102822 0.10301 0.103198
0.103386 0.103575 0.103764 0.103952 0.104141 0.104329 0.104518 0.104707 0.104896 0.105085
0.105274 0.105463 0.105653 0.105842 0.106031 0.10622 0.10641 0.106599 0.106789 0.106978
0.107168 0.107357 0.107547 0.107736 0.107926 0.108115 0.108305 0.108494 0.108684 0.108873
0.109063 0.109252 0.109442 0.109631 0.10982 0.11001 0.110199 0.110389 0.110578 0.110767
0.110956 0.111146 0.111335 0.111524 0.111714 0.111903 0.112092 0.112281 0.112471 0.11266
0.112849 0.113038 0.113227 0.113416 0.113606 0.113795 0.113984 0.114173 0.114362 0.114551
0.11474 0.11493 0.115119 0.115308 0.115497 0.115686 0.115875 0.116064 0.116253 0.116442
0.116632 0.116821 0.11701 0.117199 0.117388 0.117577 0.117766 0.117955 0.118144 0.118334
0.118523 0.118712 0.118901 0.11909 0.119279 0.119468 0.119657 0.119846 0.120035 0.120225
0.120414 0.120603 0.120792 0.120981 0.12117 0.121359 0.121548 0.121737 0.121926 0.122115
0.122304 0.122494 0.122683 0.122872 0.123061 0.12325 0.123439 0.123628 0.123817 0.124006
0.124196 0.124385 0.124574 0.124763 0.124952 0.125141 0.12533 0.12552 0.125709 0.125898
0.126087 0.126276 0.126465 0.126655 0.126844 0.127033 0.127222 0.127411 0.127601 0.12779
0.127979 0.128168 0.128357 0.128547 0.128736 0.128925 0.129114 0.129303 0.129492 0.129681
0.12987 0.13006 0.130249 0.130438 0.130627 0.130816 0.131005 0.131194 0.131383 0.131572
0.131761 0.13195 0.132139 0.132328 0.132516 0.132705 0.132894 0.133083 0.133272 0.133461
0.133649 0.133838 0.134027 0.134216 0.134404 0.134593 0.134782 0.13497 0.135159 0.135348
0.135536 0.135725 0.135913 0.136102 0.136291 0.136479 0.136667 0.136856 0.137044 0.137233
0.137421 0.13761 0.137798 0.137987 0.138175 0.138363 0.138552 0.13874 0.138928 0.139117
0.139305 0.139493 0.139682 0.13987 0.140058 0.140246 0.140435 0.140623 0.140811 0.141
0.141188 0.141376 0.141564 0.141752 0.141941 0.142129 0.142317 0.142505 0.142693 0.142882
0.14307 0.143258 0.143446 0.143634 0.143822 0.14401 0.144198 0.144387 0.144575 0.144763
0.144951 0.145139 0.145327 0.145515 0.145703 0.145891 0.146079 0.146268 0.146456 0.146644
0.146832 0.14702 0.147208 0.147396 0.147584 0.147772 0.14796 0.148148 0.148336 0.148524
0.148712 0.1489 0.149088 0.149277 0.149465 0.149653 0.149841 0.150029 0.150217 0.150405
0.150593 0.150781 0.150969 0.151157 0.151345 0.151721 0.152097 0.152472 0.152848 0.153224
0.153975 0.154726 0.155477 0.156228 0.156979 0.158479 0.15998 0.161481 0.162982 0.164482
0.165983 0.167483 0.168984 0.170484 0.171985 0.174985 0.177986 0.180986 0.183986 0.186987
0.192987 0.198987 0.204988 0.210988 0.216988 0.222988 0.228988 0.234988 0.240988 0.246989
0.252989 0.258989 0.264989 0.270989 0.276989 0.282989 0.288989 0.294989 0.300989 0.30699
0.31299 0.31899 0.32499 0.33099 0.33699 0.34299 0.34899 0.35499 0.36099 0.36699
0.37299 0.37899 0.38499 0.39099 0.396991 0.402991 0.403341 0 7.36888e-05 0.000147382
0.000221078 0.000294779 0.000368483 0.000559111 0.000749772 0.000940468 0.0011312 0.00132196 0.00151276 0.00170359
0.00189446 0.00208536 0.0022763 0.00246727 0.00265828 0.00284933 0.00304042 0.00323155 0.00342271 0.00361391
0.00380516 0.00399644 0.00418777 0.00437913 0.00457054 0.004762 0.00495349 0.00514503 0.00532801 0.00551104
0.0056941 0.00587721 0.00606106 0.00606953 0.00607801 0.00608648 0.00609495 0.00610342 0.00629524 0.00648711
0.00667902 0.00687099 0.00706301 0.00725507 0.00744719 0.00763937 0.00783159 0.00802387 0.00821621 0.0084086
0.00860105 0.00879356 0.00898613 0.00917875 0.00937144 0.00956419 0.009757 0.00994988 0.0101428 0.0103358
0.0105289 0.010722 0.0109152 0.0111085 0.0113018 0.0114953 0.0116888 0.0118823 0.0120759 0.0122697
0.0124635 0.0126573 0.0128513 0.0130453 0.0132394 0.0134336 0.0136279 0.0138223 0.0140167 0.0142113
0.0144059 0.0146006 0.0147954 0.0149904 0.0151854 0.0153805 0.0155757 0.015771 0.0159664 0.0161619
0.0163576 0.0165533 0.0167492 0.0169451 0.0171412 0.0173374 0.0175337 0.0177301 0.0179267 0.0181233
0.0183202 0.0185171 0.0187142 0.0189113 0.0191087 0.0193062 0.0195038 0.0197015 0.0198994 0.0200975
0.0202957 0.0204941 0.0206926 0.0208913 0.0210901 0.0212891 0.0214883 0.0216877 0.0218872 0.0220869
0.0222868 0.0224869 0.0226871 0.0228876 0.0230883 0.0232891 0.0234902 0.0236915 0.023893 0.0240947
0.0242966 0.0244988 0.0247012 0.0249038 0.0251067 0.0253098 0.0255132 0.0257168 0.0259207 0.0261248
0.0263293 0.026534 0.026739 0.0269442 0.0271498 0.0273557 0.0275619 0.0277684 0.0279752 0.0281824
0.0283899 0.0285978 0.028806 0.0290145 0.0292235 0.0294328 0.0296425 0.0298526 0.030063 0.0302739
0.0304853 0.030697 0.0309092 0.0311219 0.031335 0.0315486 0.0317627 0.0319772 0.0321923 0.0324079
0.032624 0.0328407 0.033058 0.0332757 0.0334941 0.0337131 0.0339327 0.0341529 0.0343738 0.0345953
0.0348175 0.0350404 0.0352641 0.0354884 0.0357134 0.0359393 0.0361659 0.0363933 0.0366215 0.0368506
0.0370805 0.0373114 0.0375431 0.0377757 0.0380092 0.0382437 0.0384792 0.0387157 0.0389533 0.0391919
0.0394316 0.0396725 0.0399144 0.0401574 0.0404016 0.0406469 0.0408935 0.0411413 0.0413904 0.0416407
0.0418924 0.0421454 0.0423997 0.0426552 0.0429119 0.0431698 0.0434289 0.0436898 0.0439519 0.0442151
0.0444795 0.044745 0.0450124 0.0452803 0.0455488 0.0458178 0.0460873 0.0463593 0.0464921 0.0466249
0.0467576 0.0468902 0.0469717 0.047121 0.0472701 0.0474191 0.0475679 0.0477177 0.0479888 0.0482581
0.0485255 0.0487911 0.0490598 0.0492106 0.0493601 0.0495084 0.0496555 0.0497679 0.0498845 0.0500004
0.0501155 0.0502299 0.0503445 0.0505922 0.0508348 0.0510725 0.0513055 0.051535 0.0515533 0.0515716
0.0515898 0.051608 0.0516263 0.0518301 0.0520294 0.0522244 0.0524153 0.0526004 0.0527145 0.0528269
0.0529375 0.0530468 0.0531845 0.0532562 0.0533272 0.0533976 0.0534675 0.0535363 0.0537109 0.053882
0.0540495 0.0542138 0.0543717 0.054513 0.0546526 0.0547908 0.0549273 0.0551389 0.0551576 0.0551764
0.0551951 0.0552138 0.0552358 0.0553631 0.0554899 0.0556162 0.0557419 0.0558665 0.0560096 0.0561529
0.0562963 0.0564399 0.0565833 0.0567268 0.0568707 0.0570148 0.0571594 0.0573043 0.0574495 0.0575951
0.0577411 0.0578875 0.0580342 0.0581812 0.0583286 0.0584762 0.0586242 0.0587725 0.0589212 0.0590701
0.0592194 0.059369 0.0595189 0.0596691 0.0598196 0.0599705 0.0601216 0.060273 0.0604247 0.0605768
0.0607292 0.0608819 0.0610349 0.0611882 0.0613418 0.0614958 0.0616501 0.0618048 0.0619598 0.0621151
0.0622708 0.0624269 0.0625833 0.06274 0.0628971 0.0630545 0.0632123 0.0633705 0.063529 0.0636879
0.0638471 0.0640066 0.0641666 0.0643268 0.0644874 0.0646484 0.0648097 0.0649713 0.0651333 0.0652955
0.0654582 0.0656211 0.0657844 0.065948 0.0661119 0.0662761 0.0664406 0.0666054 0.0667705 0.0669359
0.0671016 0.0672676 0.0674339 0.0676005 0.0677673 0.0679343 0.0681017 0.0682693 0.0684372 0.0686053
0.0687737 0.0689423 0.0691112 0.0692803 0.0694496 0.0696191 0.0697889 0.0699589 0.0701292 0.0702996
0.0704703 0.0706411 0.0708122 0.0709102 0.0710082 0.0711063 0.0712045 0.0713012 0.071375 0.0714488
0.0715227 0.0715966 0.0716706 0.0718427 0.0720151 0.0721876 0.0723604 0.0725332 0.0727062 0.0728794
0.0730526 0.0732261 0.0733996 0.0735734 0.0737472 0.0739212 0.0740952 0.0742694 0.0744437 0.0746181
0.0747926 0.0749671 0.0751418 0.0753165 0.0754913 0.0756662 0.0758411 0.0760161 0.0761911 0.0763662
0.0765413 0.0767163 0.0768915 0.0770666 0.0772418 0.0774169 0.0775921 0.07774 0.0777454 0.0777509
0.0777563 0.0777618 0.0777672 0.0779424 0.0781174 0.0782925 0.0784675 0.0786425 0.0788175 0.0789924
0.0791673 0.0793422 0.079517 0.0796918 0.0798666 0.0800412 0.0802159 0.0803905 0.0805651 0.0807397
0.0809143 0.0810889 0.0812635 0.081438 0.0816126 0.0817872 0.0819619 0.0821366 0.0823113 0.0824861
0.082661 0.0828359 0.0830109 0.083186 0.0833612 0.0835365 0.0837118 0.0838873 0.0840629 0.0842387
0.0844146 0.0845905 0.0847667 0.0849429 0.0851192 0.0852957 0.0854723 0.085649 0.0858259 0.0860029
0.0861801 0.0863574 0.0865348 0.0867123 0.08689 0.0870677 0.0872456 0.0874237 0.0876019 0.0877802
0.0879586 0.0881371 0.0883158 0.0884946 0.0886735 0.0888525 0.0890316 0.0892108 0.0893902 0.0895697
0.0897493 0.089929 0.0901088 0.0902888 0.0904688 0.0906489 0.0908291 0.0910095 0.09119 0.0913705
0.0915512 0.091732 0.0919129 0.0920939 0.092275 0.0924562 0.0926375 0.0928189 0.0930004 0.093182
0.0933638 0.0935457 0.0937276 0.0939097 0.0940919 0.0942742 0.0944566 0.0946391 0.0948218 0.0950046
0.0951875 0.0953706 0.0955537 0.0957371 0.0959205 0.096104 0.0962877 0.0964715 0.0966556 0.0968397
0.0970241 0.0972086 0.0973932 0.0975781 0.0977632 0.0979486 0.0981341 0.0983199 0.0985064 0.0986932
0.0988802 0.0990675 0.0992551 0.0994421 0.0996293 0.0998168 0.100005 0.100193 0.100381 0.10057
0.10076 0.10095 0.10114 0.101331 0.101522 0.101714 0.101907 0.102101 0.102295 0.10249
0.102687 0.102884 0.103082 0.103281 0.103481 0.103682 0.103884 0.104087 0.104292 0.104499
0.104707 0.104916 0.105126 0.105338 0.105551 0.105765 0.10598 0.106197 0.106416 0.106638
0.106861 0.107086 0.107312 0.107539 0.107768 0.107999 0.108231 0.108464 0.1087 0.108938
0.109177 0.109418 0.10966 0.109904 0.110149 0.110395 0.110643 0.110892 0.111143 0.111394
0.111647 0.111901 0.112156 0.112413 0.11267 0.112928 0.113187 0.113446 0.113464 0.113481
0.113498 0.113515 0.113532 0.113776 0.11402 0.114265 0.11451 0.114756 0.11502 0.115284
0.115549 0.115814 0.11608 0.116345 0.116611 0.116877 0.117144 0.11741 0.117677 0.117943
0.11821 0.118476 0.118743 0.119009 0.119276 0.119542 0.119809 0.120075 0.120341 0.120607
0.120872 0.121138 0.121403 0.121668 0.121933 0.122198 0.122464 0.122728 0.122993 0.123257
0.123521 0.123784 0.124048 0.124312 0.124575 0.124839 0.125102 0.125366 0.125629 0.125892
0.126154 0.126417 0.12668 0.126943 0.127206 0.127469 0.127733 0.127996 0.128259 0.128522
0.128786 0.129049 0.129313 0.129576 0.12984 0.130104 0.130368 0.130633 0.13067 0.130707
0.130744 0.130781 0.130819 0.131046 0.131273 0.131501 0.131728 0.131956 0.132123 0.132289
0.132456 0.132623 0.132794 0.132892 0.132989 0.133087 0.133185 0.133283 0.133548 0.133813
0.134079 0.134344 0.134609 0.134874 0.135138 0.135403 0.135666 0.13593 0.136193 0.136456
0.136719 0.136981 0.137242 0.137503 0.137763 0.138023 0.138282 0.13854 0.138797 0.139055
0.139311 0.139567 0.139822 0.140075 0.140329 0.140581 0.140832 0.141082 0.141332 0.141582
0.14183 0.142078 0.142325 0.142571 0.142817 0.143061 0.143305 0.143548 0.143791 0.144033
0.144275 0.144516 0.144756 0.144995 0.145234 0.145473 0.14571 0.145948 0.146184 0.146421
0.146657 0.146892 0.147127 0.147362 0.147596 0.14783 0.148063 0.148296 0.148528 0.14876
0.148992 0.149224 0.149455 0.149686 0.149917 0.150147 0.150377 0.150607 0.150836 0.151066
0.151295 0.151524 0.151752 0.151981 0.152209 0.152437 0.152665 0.152893 0.15312 0.153348
0.153575 0.153802 0.154029 0.154256 0.154483 0.15471 0.154937 0.155163 0.15539 0.155616
0.155842 0.156069 0.156295 0.156521 0.156747 0.156973 0.157199 0.157425 0.157651 0.157877
0.158102 0.158328 0.158554 0.15878 0.159006 0.159232 0.159457 0.159683 0.159909 0.160135
0.160361 0.160587 0.160813 0.161039 0.161265 0.161491 0.161717 0.161943 0.162169 0.162395
0.162622 0.162848 0.163074 0.163301 0.163527 0.163754 0.16398 0.164207 0.164434 0.16466
0.164887 0.165115 0.165342 0.165359 0.165376 0.165393 0.165409 0.165426 0.165865 0.166297
0.166721 0.167136 0.167544 0.168371 0.169198 0.170021 0.17084 0.171642 0.173208 0.174742
0.176274 0.177806 0.179336 0.180861 0.182385 0.183908 0.18543 0.186951 0.189986 0.193019
0.196049 0.199078 0.202104 0.208122 0.214139 0.220155 0.226171 0.232186 0.238189 0.244196
0.250204 0.256211 0.262218 0.268221 0.274227 0.280234 0.28624 0.292247 0.298249 0.304255
0.310262 0.316268 0.322274 0.328276 0.334282 0.340288 0.346294 0.352301 0.358302 0.364308
0.370314 0.37632 0.382326 0.388327 0.394333 0.400339 0.406344 0.412349 0.418351 0.424424
0.430568 0.433832 0 7.36649e-05 0.000147334 0.000221009 0.000294688 0.000368371 0.000558944 0.00074955
0.000940189 0.00113086 0.00132157 0.0015123 0.00170308 0.00189388 0.00208472 0.0022756 0.00246651 0.00265746
0.00284844 0.00303946 0.00323052 0.00342162 0.00361275 0.00380393 0.00399514 0.0041864 0.00437769 0.00456902
0.0047604 0.00495182 0.00514329 0.00533479 0.00552634 0.00571794 0.00590958 0.00610127 0.00613337 0.00616547
0.00619757 0.00622967 0.00626175 0.00642142 0.00658113 0.00674087 0.00690064 0.00706045 0.00725242 0.00744445
0.00763653 0.00782866 0.00802085 0.00821308 0.00840538 0.00859773 0.00879013 0.0089826 0.00917511 0.00936769
0.00956033 0.00975303 0.00994579 0.0101386 0.0103315 0.0105244 0.0107175 0.0109105 0.0111037 0.0112969
0.0114902 0.0116836 0.011877 0.0120705 0.0122641 0.0124577 0.0126514 0.0128452 0.0130391 0.0132331
0.0134271 0.0136213 0.0138155 0.0140098 0.0142041 0.0143986 0.0145932 0.0147878 0.0149825 0.0151774
0.0153723 0.0155673 0.0157625 0.0159577 0.016153 0.0163484 0.016544 0.0167396 0.0169354 0.0171312
0.0173272 0.0175233 0.0177195 0.0179158 0.0181123 0.0183088 0.0185055 0.0187024 0.0188993 0.0190964
0.0192936 0.019491 0.0196885 0.0198861 0.0200839 0.0202818 0.0204799 0.0206781 0.0208765 0.0210751
0.0212738 0.0214727 0.0216717 0.0218709 0.0220703 0.0222699 0.0224696 0.0226696 0.0228697 0.02307
0.0232705 0.0234712 0.0236722 0.0238733 0.0240746 0.0242762 0.024478 0.02468 0.0248822 0.0250847
0.0252874 0.0254904 0.0256936 0.0258971 0.0261008 0.0263048 0.0265091 0.0267137 0.0269186 0.0271237
0.0273292 0.0275349 0.027741 0.0279474 0.0281541 0.0283612 0.0285686 0.0287764 0.0289845 0.029193
0.0294019 0.0296112 0.0298209 0.0298603 0.0298997 0.0299391 0.0299785 0.0300171 0.0301883 0.0303598
0.0305316 0.0307037 0.0308761 0.0310884 0.0313011 0.0315145 0.0317283 0.0319426 0.0321574 0.0323728
0.0325888 0.0328054 0.0330225 0.0332403 0.0334587 0.0336778 0.0338975 0.0341179 0.0343391 0.034561
0.0347836 0.0350071 0.0352314 0.0354564 0.0356824 0.0359093 0.0361371 0.0363658 0.0365955 0.0368263
0.0370582 0.0372912 0.0375253 0.0377605 0.037997 0.0382348 0.038474 0.0387145 0.0389564 0.0391999
0.0394451 0.0396919 0.0399404 0.0401904 0.0404424 0.0406964 0.0409524 0.0412105 0.0414706 0.0417332
0.0419984 0.0422662 0.0425366 0.0428102 0.0430869 0.0433667 0.0436498 0.0439367 0.0442263 0.0445201
0.044818 0.0451202 0.0454279 0.0457378 0.0460522 0.0463713 0.046695 0.0470289 0.0471974 0.0473674
0.0475388 0.0477112 0.0477888 0.0479858 0.0481841 0.0483835 0.048584 0.0487922 0.0491043 0.0494187
0.0497351 0.0500504 0.0501379 0.0502491 0.0503601 0.0504707 0.0505811 0.0506955 0.0509022 0.0511066