# vtk DataFile Version 2.0
tracks
ASCII
DATASET POLYDATA
POINTS 19448 float
-1.001 1e-07 0.0011 -0.99955 9.63445e-08 0.00110002 -0.9981 9.26867e-08 0.00110004 -0.99665 8.90265e-08
0.00110007 -0.9952 8.53639e-08 0.0011001 -0.99375 8.1699e-08 0.00110014 -0.99 7.21988e-08 0.00110024
-0.98625 6.27111e-08 0.00110033 -0.9825 5.32208e-08 0.00110043 -0.97875 4.37011e-08 0.00110054 -0.975
3.41265e-08 0.00110067 -0.972344 2.73012e-08 0.00110078 -0.969688 2.04788e-08 0.00110089 -0.967032 1.36549e-08
0.00110099 -0.964376 6.82936e-09 0.0011011 -0.961724 1.66002e-17 0.00110121 -0.960629 -2.83183e-09 0.00110126
-0.959534 -5.66873e-09 0.0011013 -0.95844 -8.5107e-09 0.00110135 -0.957345 -1.13577e-08 0.0011014 -0.95625
-1.42098e-08 0.00110145 -0.9525 -2.39941e-08 0.00110162 -0.94875 -3.37845e-08 0.00110179 -0.945 -4.35782e-08
0.00110196 -0.94125 -5.34083e-08 0.00110213 -0.9375 -6.33057e-08 0.0011023 -0.93375 -7.32649e-08 0.00110248
-0.93 -8.32336e-08 0.00110266 -0.92625 -9.32057e-08 0.00110284 -0.9225 -1.03224e-07 0.00110302 -0.91875
-1.13328e-07 0.0011032 -0.915 -1.23509e-07 0.00110338 -0.91125 -1.33703e-07 0.00110357 -0.9075 -1.43901e-07
0.00110375 -0.90375 -1.54151e-07 0.00110394 -0.9 -1.64499e-07 0.00110413 -0.89625 -1.7493e-07 0.00110432
-0.8925 -1.85481e-07 0.00110452 -0.88875 -1.96136e-07 0.00110472 -0.885 -2.06847e-07 0.00110492 -0.88125
-2.17563e-07 0.00110513 -0.8775 -2.28238e-07 0.00110533 -0.87375 -2.39075e-07 0.00110554 -0.87 -2.50027e-07
0.00110575 -0.86625 -2.61042e-07 0.00110597 -0.8625 -2.72062e-07 0.00110619 -0.85875 -2.83028e-07 0.0011064
-0.855 -2.94186e-07 0.00110662 -0.85125 -3.05475e-07 0.00110685 -0.8475 -3.16836e-07 0.00110708 -0.84375
-3.28202e-07 0.00110731 -0.84 -3.3955e-07 0.00110754 -0.83625 -3.51066e-07 0.00110777 -0.8325 -3.62726e-07
0.00110802 -0.82875 -3.74464e-07 0.00110826 -0.825 -3.86207e-07 0.0011085 -0.82125 -3.97867e-07 0.00110875
-0.8175 -4.09776e-07 0.001109 -0.81375 -4.21842e-07 0.00110926 -0.81 -4.33995e-07 0.00110952 -0.80625
-4.46153e-07 0.00110978 -0.8025 -4.5821e-07 0.00111004 -0.79875 -4.7055e-07 0.00111031 -0.795 -4.83063e-07
0.00111058 -0.79125 -4.95671e-07 0.00111086 -0.7875 -5.08285e-07 0.00111114 -0.78375 -5.20873e-07 0.00111142
-0.78 -5.33679e-07 0.00111171 -0.77625 -5.46667e-07 0.001112 -0.7725 -5.59754e-07 0.0011123 -0.76875
-5.72848e-07 0.0011126 -0.765 -5.85914e-07 0.0011129 -0.76125 -5.992e-07 0.00111321 -0.7575 -6.12665e-07
0.00111352 -0.75375 -6.26229e-07 0.00111384 -0.75 -6.39801e-07 0.00111416 -0.74625 -6.53203e-07 0.00111448
-0.7425 -6.66978e-07 0.00111481 -0.73875 -6.80938e-07 0.00111515 -0.735 -6.95003e-07 0.00111549 -0.73125
-7.09076e-07 0.00111584 -0.7275 -7.22949e-07 0.00111618 -0.72375 -7.37249e-07 0.00111654 -0.72 -7.51755e-07
0.0011169 -0.71625 -7.66379e-07 0.00111727 -0.7125 -7.81012e-07 0.00111764 -0.70875 -7.9541e-07 0.00111801
-0.705 -8.10288e-07 0.00111839 -0.70125 -8.25386e-07 0.00111878 -0.6975 -8.40611e-07 0.00111917 -0.69375
-8.55847e-07 0.00111957 -0.69 -8.71049e-07 0.00111997 -0.68625 -8.86549e-07 0.00112037 -0.6825 -9.02285e-07
0.00112079 -0.67875 -9.18157e-07 0.00112122 -0.675 -9.34041e-07 0.00112165 -0.67125 -9.49893e-07 0.00112207
-0.6675 -9.6605e-07 0.00112251 -0.66375 -9.82447e-07 0.00112296 -0.66 -9.98984e-07 0.00112342 -0.65625
-1.01553e-06 0.00112388 -0.6525 -1.03171e-06 0.00112434 -0.64875 -1.04855e-06 0.00112481 -0.645 -1.06564e-06
0.0011253 -0.64125 -1.08288e-06 0.00112579 -0.6375 -1.10014e-06 0.00112628 -0.63375 -1.11736e-06 0.00112678
-0.63 -1.13493e-06 0.00112729 -0.62625 -1.15278e-06 0.00112781 -0.6225 -1.17079e-06 0.00112834 -0.61875
-1.18882e-06 0.00112887 -0.615 -1.20682e-06 0.0011294 -0.61125 -1.22518e-06 0.00112995 -0.6075 -1.24383e-06
0.00113051 -0.60375 -1.26264e-06 0.00113108 -0.6 -1.28147e-06 0.00113165 -0.59625 -1.30029e-06 0.00113222
-0.5925 -1.31921e-06 0.00113279 -0.58875 -1.33815e-06 0.00113336 -0.585 -1.35726e-06 0.00113394 -0.58125
-1.37667e-06 0.00113454 -0.5775 -1.39565e-06 0.00113515 -0.57375 -1.41543e-06 0.00113576 -0.57 -1.43523e-06
0.00113638 -0.56625 -1.45523e-06 0.001137 -0.5625 -1.47554e-06 0.00113765 -0.55875 -1.49533e-06 0.0011383
-0.555 -1.51606e-06 0.00113896 -0.55125 -1.53681e-06 0.00113962 -0.5475 -1.55777e-06 0.00114029 -0.54375
-1.57907e-06 0.00114098 -0.54 -1.60069e-06 0.00114169 -0.53625 -1.62245e-06 0.0011424 -0.5325 -1.64424e-06
0.00114311 -0.52875 -1.66626e-06 0.00114383 -0.525 -1.68863e-06 0.00114456 -0.52125 -1.71021e-06 0.00114532
-0.5175 -1.73308e-06 0.00114608 -0.51375 -1.75597e-06 0.00114684 -0.51 -1.77912e-06 0.00114761 -0.50625
-1.80264e-06 0.00114839 -0.5025 -1.8252e-06 0.0011492 -0.49875 -1.84926e-06 0.00115001 -0.495 -1.87337e-06
0.00115082 -0.49125 -1.89775e-06 0.00115164 -0.4875 -1.92253e-06 0.00115248 -0.48375 -1.94775e-06 0.00115334
-0.48 -1.97315e-06 0.0011542 -0.47625 -1.9986e-06 0.00115506 -0.4725 -2.02433e-06 0.00115593 -0.46875
-2.05051e-06 0.00115682 -0.465 -2.07716e-06 0.00115773 -0.46125 -2.10402e-06 0.00115864 -0.4575 -2.13093e-06
0.00115955 -0.45375 -2.15813e-06 0.00116047 -0.45 -2.18576e-06 0.0011614 -0.44625 -2.21389e-06 0.00116236
-0.4425 -2.24225e-06 0.00116331 -0.43875 -2.27067e-06 0.00116426 -0.435 -2.29938e-06 0.00116522 -0.43125
-2.32853e-06 0.0011662 -0.4275 -2.3555e-06 0.00116719 -0.42375 -2.38544e-06 0.00116817 -0.42 -2.41544e-06
0.00116916 -0.41625 -2.44578e-06 0.00117016 -0.4125 -2.4766e-06 0.00117116 -0.40875 -2.50479e-06 0.00117216
-0.405 -2.53652e-06 0.00117317 -0.40125 -2.56833e-06 0.00117418 -0.3975 -2.60051e-06 0.00117519 -0.39375
-2.63323e-06 0.0011762 -0.39 -2.66668e-06 0.0011772 -0.38625 -2.70045e-06 0.0011782 -0.3825 -2.73431e-06
0.00117921 -0.37875 -2.76858e-06 0.00118021 -0.375 -2.80343e-06 0.00118119 -0.37125 -2.83911e-06 0.00118215
-0.3675 -2.87516e-06 0.00118311 -0.36375 -2.9113e-06 0.00118408 -0.36 -2.94786e-06 0.00118502 -0.35625
-2.98499e-06 0.00118592 -0.3525 -3.01734e-06 0.00118679 -0.34875 -3.05579e-06 0.00118766 -0.345 -3.09435e-06
0.00118852 -0.34125 -3.13334e-06 0.00118935 -0.3375 -3.17291e-06 0.0011901 -0.33375 -3.21352e-06 0.0011908
-0.33 -3.25459e-06 0.00119149 -0.32625 -3.29577e-06 0.00119218 -0.3225 -3.33744e-06 0.0011928 -0.31875
-3.37973e-06 0.00119332 -0.315 -3.42323e-06 0.00119373 -0.31125 -3.46725e-06 0.00119414 -0.3075 -3.51139e-06
0.00119455 -0.30375 -3.556e-06 0.00119485 -0.3 -3.60118e-06 0.00119499 -0.29625 -3.63757e-06 0.00119497
-0.2925 -3.68503e-06 0.00119472 -0.28875 -3.73304e-06 0.00119423 -0.285 -3.78146e-06 0.00119357 -0.28125
-3.83001e-06 0.00119292 -0.2775 -3.86735e-06 0.00119226 -0.27375 -3.91791e-06 0.00119127 -0.27 -3.969e-06
0.00118994 -0.26625 -4.02048e-06 0.00118837 -0.2625 -4.07207e-06 0.0011868 -0.25875 -4.11013e-06 0.00118524
-0.255 -4.16392e-06 0.0011832 -0.25125 -4.21812e-06 0.00118067 -0.2475 -4.27264e-06 0.00117781 -0.24375
-4.32725e-06 0.00117495 -0.24 -4.38343e-06 0.00117211 -0.23625 -4.44037e-06 0.00116863 -0.2325 -4.49749e-06
0.00116451 -0.22875 -4.55475e-06 0.00115999 -0.225 -4.61208e-06 0.00115549 -0.22125 -4.64977e-06 0.001151
-0.2175 -4.70891e-06 0.00114566 -0.21375 -4.76777e-06 0.00113945 -0.21 -4.82646e-06 0.00113274 -0.20625
-4.88516e-06 0.00112607 -0.2025 -4.92075e-06 0.00111945 -0.19875 -4.98208e-06 0.00111162 -0.195 -5.0426e-06
0.0011026 -0.19125 -5.10265e-06 0.00109298 -0.1875 -5.16267e-06 0.00108347 -0.18375 -5.22429e-06 0.00107404
-0.18 -5.28467e-06 0.0010631 -0.17625 -5.34336e-06 0.00105065 -0.1725 -5.4013e-06 0.00103768 -0.16875
-5.45914e-06 0.0010249 -0.165 -5.5194e-06 0.00101229 -0.16125 -5.57713e-06 0.000997901 -0.1575 -5.63214e-06
0.00098177 -0.15375 -5.68634e-06 0.000965403 -0.15 -5.74046e-06 0.000949339 -0.14625 -5.79726e-06 0.000933565
-0.1425 -5.8491e-06 0.000915799 -0.13875 -5.89608e-06 0.000896097 -0.135 -5.94268e-06 0.000876661 -0.13125
-5.98931e-06 0.000857683 -0.1275 -5.9971e-06 0.000839142 -0.12375 -6.04041e-06 0.000818543 -0.12 -6.07912e-06
0.000796289 -0.11625 -6.11807e-06 0.000774677 -0.1125 -6.15728e-06 0.000753687 -0.10875 -6.15549e-06 0.000733289
-0.105 -6.18753e-06 0.000710874 -0.10125 -6.21429e-06 0.000687499 -0.0975 -6.2417e-06 0.000664919 -0.0937499
-6.26976e-06 0.000643103 -0.0899999 -6.30038e-06 0.00062201 -0.0862499 -6.32321e-06 0.000599395 -0.0824999 -6.34405e-06
0.000576719 -0.0787499 -6.36584e-06 0.000554905 -0.0749999 -6.38857e-06 0.000533921 -0.0712499 -6.41351e-06 0.000513716
-0.0674999 -6.43345e-06 0.000493442 -0.0637499 -6.45371e-06 0.000473815 -0.0599999 -6.47498e-06 0.000454958 -0.0562499
-6.49724e-06 0.000436839 -0.0524999 -6.47791e-06 0.000419412 -0.0487498 -6.48911e-06 0.000404339 -0.0449998 -6.50143e-06
0.00038979 -0.0412498 -6.51484e-06 0.000375749 -0.0374998 -6.52931e-06 0.000362199 -0.0337498 -6.54497e-06 0.000349112
-0.0299998 -6.54708e-06 0.000340486 -0.0262498 -6.5501e-06 0.000332065 -0.0224998 -6.55401e-06 0.000323844 -0.0187499
-6.5588e-06 0.000315819 -0.0149999 -6.56371e-06 0.000307983 -0.0112499 -6.55917e-06 0.000304558 -0.0074999 -6.55505e-06
0.000301169 -0.00374991 -6.55134e-06 0.000297817 6.11921e-08 -6.54804e-06 0.0002945 0.00375005 -6.51029e-06 0.000291221
0.00750005 -6.50253e-06 0.000287987 0.01125 -6.49514e-06 0.000284788 0.015 -6.48813e-06 0.000281623 0.01875
-6.48149e-06 0.000278492 0.0225 -6.441e-06 0.000277457 0.02625 -6.42647e-06 0.00027643 0.03 -6.41203e-06
0.000275406 0.03375 -6.39768e-06 0.000274386 0.0375 -6.38342e-06 0.00027337 0.04125 -6.33505e-06 0.000272883
0.045 -6.30833e-06 0.0002724 0.04875 -6.2816e-06 0.000271917 0.0525 -6.25486e-06 0.000271435 0.05625
-6.22812e-06 0.000270954 0.06 -6.18986e-06 0.000270757 0.06375 -6.14853e-06 0.000270562 0.0675 -6.10713e-06
0.000270367 0.07125 -6.06564e-06 0.000270172 0.075 -6.02408e-06 0.000269977 0.07875 -5.95303e-06 0.00026993
0.0825 -5.89718e-06 0.000269885 0.08625 -5.84121e-06 0.00026984 0.09 -5.7851e-06 0.000269795 0.09375
-5.72885e-06 0.000269749 0.0975 -5.64772e-06 0.000269755 0.10125 -5.58013e-06 0.000269761 0.105 -5.51237e-06
0.000269768 0.10875 -5.44445e-06 0.000269774 0.1125 -5.37636e-06 0.00026978 0.11625 -5.30672e-06 0.000269799
[...]
POINT_DATA 19448
FIELD attributes 3
age 1 19448 float
0 7.30139e-05 0.000146031 0.000219053 0.000292078 0.000365106 0.000553983 0.000742859 0.000931736 0.00112063 0.00130956
0.00144339 0.00157723 0.00171107 0.00184491 0.00197853 0.00203371 0.00208889 0.00214407 0.00219925 0.00225444
0.00244348 0.00263253 0.00282157 0.00301064 0.00319974 0.00338888 0.00357802 0.00376716 0.00395632 0.00414552
0.00433475 0.00452399 0.00471323 0.00490249 0.0050918 0.00528114 0.00547053 0.00565997 0.00584943 0.00603889
0.00622835 0.00641786 0.00660742 0.006797 0.00698659 0.00717617 0.00736581 0.0075555 0.00774521 0.00793493
0.00812465 0.00831442 0.00850425 0.00869411 0.00888397 0.00907382 0.00926374 0.00945372 0.00964373 0.00983375
0.0100238 0.0102138 0.010404 0.0105942 0.0107843 0.0109745 0.0111648 0.0113551 0.0115454 0.0117358
0.0119261 0.0121166 0.0123071 0.0124976 0.0126882 0.0128787 0.0130694 0.0132601 0.0134508 0.0136416
0.0138323 0.0140232 0.0142141 0.0144051 0.0145961 0.0147871 0.0149781 0.0151693 0.0153606 0.0155518
0.015743 0.0159343 0.0161258 0.0163173 0.0165088 0.0167003 0.0168919 0.0170836 0.0172754 0.0174672
0.017659 0.0178509 0.0180429 0.018235 0.0184271 0.0186192 0.0188115 0.0190039 0.0191963 0.0193888
0.0195812 0.0197738 0.0199666 0.0201594 0.0203522 0.0205451 0.0207379 0.0209308 0.0211237 0.0213168
0.02151 0.0217033 0.0218966 0.0220899 0.0222835 0.0224772 0.0226709 0.0228646 0.0230585 0.0232525
0.0234467 0.0236409 0.0238351 0.0240295 0.024224 0.0244188 0.0246136 0.0248084 0.0250033 0.0251984
0.0253938 0.0255892 0.0257846 0.0259802 0.026176 0.026372 0.0265681 0.0267641 0.0269604 0.0271569
0.0273537 0.0275505 0.0277473 0.0279443 0.0281417 0.0283393 0.0285369 0.0287346 0.0289324 0.0291306
0.0293292 0.0295277 0.0297263 0.0299251 0.0301242 0.0303238 0.0305233 0.0307229 0.0309227 0.031123
0.0313236 0.0315243 0.0317249 0.0319259 0.0321273 0.0323292 0.0325311 0.032733 0.0329352 0.0331379
0.0333411 0.0335443 0.0337475 0.0339511 0.0341552 0.0343599 0.0345645 0.0347692 0.0349742 0.0351798
0.035386 0.0355922 0.0357984 0.036005 0.0362122 0.0364199 0.0366283 0.0368373 0.0370467 0.0372561
0.0374654 0.0376754 0.037886 0.0380969 0.0383079 0.0385187 0.0387302 0.0389422 0.0391546 0.0393669
0.0395791 0.0397918 0.0400049 0.0402183 0.0404316 0.0406447 0.0408582 0.0410719 0.0412858 0.0414994
0.0417129 0.0419264 0.04214 0.0423534 0.0425665 0.0427794 0.0429919 0.0432039 0.0434156 0.0436269
0.0438379 0.044048 0.0442571 0.0444658 0.044674 0.0448818 0.0450882 0.045293 0.0454973 0.0457013
0.0459048 0.0461062 0.0463056 0.0465047 0.0467035 0.046902 0.0470976 0.0472914 0.047485 0.0476784
0.0478716 0.0480614 0.0482499 0.0484384 0.0486268 0.0488151 0.0489998 0.049184 0.0493683 0.0495528
0.0497374 0.0499186 0.0501 0.0502816 0.0504634 0.0506455 0.0508254 0.0510055 0.0511858 0.0513662
0.0515469 0.0517268 0.0519067 0.0520868 0.0522669 0.0524472 0.0526275 0.0528079 0.0529883 0.0531688
0.0533495 0.0535301 0.0537108 0.0538915 0.0540722 0.0542533 0.0544343 0.0546154 0.0547964 0.0549775
0.0551589 0.0553403 0.0555218 0.0557032 0.0558846 0.0560663 0.0562481 0.0564298 0.0566115 0.0567933
0.0569753 0.0571573 0.0573393 0.0575214 0.0577034 0.0578857 0.058068 0.0582504 0.0584327 0.058615
0.0587976 0.0589802 0.0591628 0.0593454 0.059528 0.059711 0.0598939 0.0600768 0.0602597 0.0604426
0.0606258 0.060809 0.0609922 0.0611755 0.0613587 0.0615422 0.0617257 0.0619092 0.0620928 0.0622763
0.0624601 0.0626439 0.0628277 0.0630115 0.0631953 0.0633794 0.0635635 0.0637476 0.0639317 0.0641158
0.0643002 0.0644845 0.0646689 0.0648532 0.0650376 0.0652221 0.0654067 0.0655913 0.0657759 0.0659605
0.0661453 0.0663301 0.0665149 0.0666997 0.0668845 0.0670695 0.0672547 0.0674399 0.0676251 0.0678102
0.0679407 0.0680714 0.068202 0.0683326 0.0685416 0.0685806 0.0686197 0.0686587 0.0686978 0.0687368
0.0689221 0.0691076 0.0692931 0.0694785 0.069664 0.0698495 0.0700351 0.0702207 0.0704063 0.0705919
0.0707775 0.0709631 0.0711488 0.0713345 0.0715202 0.0717059 0.0718917 0.0720775 0.0722632 0.072449
0.0726348 0.0728206 0.0730064 0.0731923 0.0733781 0.0735639 0.0737498 0.0739357 0.0741215 0.0743074
0.0744933 0.0746792 0.0748651 0.075051 0.0752369 0.0754227 0.0756086 0.0757945 0.0759804 0.0761663
0.0763522 0.0765381 0.0767239 0.0769098 0.0770957 0.0772815 0.0774674 0.0776532 0.077839 0.0780249
0.0782107 0.0783965 0.0785823 0.0787681 0.0789539 0.0791397 0.0793254 0.0795112 0.0796969 0.0798827
0.0800685 0.0802542 0.0804399 0.0806257 0.0808114 0.0809972 0.0811829 0.0813687 0.0815544 0.0817402
0.081926 0.0821117 0.0822975 0.0824832 0.082669 0.0828548 0.0830406 0.0832264 0.0834122 0.083598
0.0837838 0.0839697 0.0841555 0.0843414 0.0845272 0.0847132 0.0848991 0.085085 0.0852709 0.0854568
0.0856428 0.0858288 0.0860148 0.0862008 0.0863868 0.0865728 0.0867589 0.0869449 0.087131 0.087317
0.0875031 0.0876892 0.0878753 0.0880615 0.0882476 0.0884337 0.0886199 0.0888061 0.0889922 0.0891784
0.0893646 0.0895508 0.089737 0.0899232 0.0901095 0.0902957 0.090482 0.0906683 0.0908545 0.0910408
0.0912271 0.0914134 0.0915997 0.091786 0.0919724 0.0921587 0.0923451 0.0925314 0.0927178 0.0929041
0.0930905 0.0932769 0.0934633 0.0936497 0.0938361 0.0940226 0.094209 0.0943954 0.0945819 0.0947683
0.0949548 0.0951413 0.0953278 0.0955142 0.0957007 0.0958873 0.0960738 0.0962603 0.0964468 0.0966334
0.09682 0.0970066 0.0971932 0.0973799 0.0975665 0.0977532 0.0979399 0.0981266 0.0983133 0.0985
0.0986868 0.0988736 0.0990604 0.0992472 0.099434 0.0996208 0.0998077 0.0999946 0.100181 0.100368
0.100555 0.100742 0.100929 0.101116 0.101303 0.10149 0.101677 0.101864 0.102051 0.102238
0.102425 0.102613 0.1028 0.102987 0.103175 0.103362 0.10355 0.103737 0.103925 0.104112
0.1043 0.104488 0.104676 0.104864 0.105052 0.10524 0.105428 0.105616 0.105805 0.105993
0.106181 0.10637 0.106559 0.106748 0.106936 0.107125 0.107314 0.107503 0.107692 0.107882
0.108071 0.10826 0.108449 0.108639 0.108828 0.109018 0.109207 0.109397 0.109586 0.109776
0.109966 0.110155 0.110345 0.110535 0.110725 0.110915 0.111104 0.111294 0.111484 0.111674
0.111864 0.112054 0.112244 0.112434 0.112624 0.112814 0.113004 0.113194 0.113384 0.113574
0.113763 0.113954 0.114144 0.114334 0.114524 0.114714 0.114904 0.115094 0.115284 0.115474
0.115664 0.115854 0.116045 0.116235 0.116425 0.116615 0.116805 0.116995 0.117185 0.117375
0.117565 0.117756 0.117946 0.118136 0.118326 0.118516 0.118706 0.118897 0.119087 0.119277
0.119467 0.119657 0.119847 0.120037 0.120228 0.120418 0.120608 0.120798 0.120988 0.121178
0.121368 0.121558 0.121749 0.121939 0.122129 0.122319 0.122509 0.122699 0.122889 0.123079
0.123269 0.123459 0.123649 0.123839 0.124029 0.124219 0.124409 0.124599 0.124789 0.124979
0.125169 0.125359 0.125549 0.125739 0.125929 0.126118 0.126308 0.126498 0.126688 0.126878
0.127068 0.127258 0.127448 0.127638 0.127827 0.128017 0.128207 0.128397 0.128587 0.128776
0.128966 0.129156 0.129346 0.129535 0.129725 0.129915 0.130105 0.130294 0.130484 0.130674
0.130863 0.131053 0.131243 0.131433 0.131622 0.131812 0.132001 0.132191 0.132381 0.132571
0.13276 0.13295 0.133139 0.133329 0.133519 0.133708 0.133898 0.134087 0.134277 0.134467
0.134656 0.134846 0.135035 0.135225 0.135415 0.135604 0.135794 0.135983 0.136173 0.136363
0.136552 0.136741 0.136931 0.137121 0.13731 0.137499 0.137689 0.137879 0.138068 0.138258
0.138447 0.138637 0.138826 0.139016 0.139206 0.139394 0.139584 0.139774 0.139963 0.140153
0.140342 0.140532 0.140721 0.140911 0.141101 0.141289 0.141479 0.141669 0.141858 0.142048
0.142237 0.142427 0.142616 0.142806 0.142996 0.143184 0.143374 0.143564 0.143753 0.143943
0.144132 0.144321 0.144511 0.1447 0.14489 0.145079 0.145268 0.145458 0.145647 0.145837
0.146025 0.146215 0.146404 0.146593 0.146783 0.146971 0.147161 0.14735 0.147539 0.147729
0.147917 0.148106 0.148295 0.148485 0.148674 0.148862 0.149051 0.14924 0.149429 0.149618
0.149807 0.149996 0.150185 0.150374 0.150563 0.150751 0.15094 0.151129 0.151317 0.151506
0.151883 0.152259 0.152636 0.153012 0.153389 0.15414 0.154891 0.155642 0.156393 0.157144
0.158645 0.160145 0.161646 0.163147 0.164647 0.166147 0.167648 0.169148 0.170648 0.172148
0.175149 0.178149 0.181149 0.184149 0.187149 0.193149 0.19915 0.20515 0.21115 0.21715
0.22315 0.22915 0.23515 0.24115 0.24715 0.25315 0.25915 0.26515 0.27115 0.27715
0.28315 0.28915 0.29515 0.301151 0.307151 0.313151 0.319151 0.325151 0.331151 0.337151
0.343151 0.349151 0.355151 0.361151 0.367151 0.373151 0.379151 0.385151 0.391151 0.397151
0.403151 0.403206 0 7.36852e-05 0.000147374 0.000221067 0.000294764 0.000368465 0.000469001 0.000569547
0.000670102 0.000770667 0.000870809 0.000961019 0.00105124 0.00114146 0.0012317 0.00132194 0.00151272 0.00170355
0.0018944 0.0020853 0.00227623 0.00246719 0.00265819 0.00284923 0.00304031 0.00323142 0.00342258 0.00361377
0.003805 0.00399628 0.00418759 0.00437895 0.00457035 0.00476179 0.00495327 0.0051448 0.00533638 0.00552799
0.00571966 0.00591137 0.00610313 0.00629494 0.00648679 0.00667869 0.00687065 0.00706265 0.00725471 0.00744682
0.00763898 0.00783119 0.00802346 0.00821579 0.00840817 0.0086006 0.0087931 0.00898566 0.00917827 0.00937094
0.00956368 0.00975647 0.00994934 0.0101423 0.0103352 0.0105283 0.0107214 0.0109146 0.0111079 0.0113012
0.0114946 0.0116881 0.0118816 0.0120753 0.012269 0.0124627 0.0126566 0.0128505 0.0130445 0.0132386
0.0134328 0.0136271 0.0138214 0.0140159 0.0142104 0.014405 0.0145997 0.0147945 0.0149894 0.0151844
0.0153795 0.0155747 0.01577 0.0159654 0.0161609 0.0163565 0.0165522 0.016748 0.016944 0.01714
0.0173362 0.0175325 0.0177289 0.0179254 0.0181221 0.0183189 0.0185158 0.0187128 0.01891 0.0191073
0.0193048 0.0195024 0.0197001 0.019898 0.020096 0.0202942 0.0204925 0.020691 0.0208897 0.0210885
0.0212875 0.0214867 0.021686 0.0218855 0.0220852 0.022285 0.0224851 0.0226853 0.0228858 0.0230864
0.0232872 0.0234883 0.0236895 0.023891 0.0240927 0.0242946 0.0244967 0.0246991 0.0249017 0.0251045
0.0253076 0.0255109 0.0257145 0.0259184 0.0261225 0.0263269 0.0265316 0.0267365 0.0269418 0.0271473
0.0273532 0.0275593 0.0277658 0.0279726 0.0281797 0.0283872 0.028595 0.0288032 0.0290117 0.0292206
0.0294298 0.0296395 0.0298495 0.03006 0.0302708 0.0304821 0.0306939 0.030906 0.0311186 0.0313317
0.0315452 0.0317593 0.0319738 0.0321888 0.0324043 0.0326204 0.0328371 0.0330542 0.033272 0.0334903
0.0337092 0.0339288 0.034149 0.0343698 0.0345912 0.0348134 0.0350363 0.0352598 0.0354841 0.0357091
0.0359349 0.0361614 0.0363888 0.0366169 0.0368459 0.0370758 0.0373066 0.0375382 0.0377708 0.0380042
0.0382387 0.0384741 0.0387106 0.038948 0.0391866 0.0394262 0.039667 0.0399089 0.0401518 0.0403959
0.0406411 0.0408876 0.0411354 0.0413843 0.0416346 0.0418861 0.042139 0.0423933 0.0426487 0.0429052
0.043163 0.043422 0.0436828 0.0439447 0.0442078 0.044472 0.0447373 0.0450046 0.0452723 0.0455406
0.0458094 0.0460787 0.0463505 0.0464766 0.0466026 0.0467286 0.0468545 0.046934 0.0470888 0.0472434
0.0473979 0.0475522 0.0477075 0.0479782 0.0482471 0.0485142 0.0487794 0.0490477 0.049193 0.0493372
0.0494803 0.0496222 0.0497318 0.0498528 0.0499731 0.0500925 0.0502112 0.0503301 0.0505774 0.0508196
0.0510568 0.0512893 0.0515183 0.0515333 0.0515483 0.0515632 0.0515782 0.0515931 0.0518001 0.0520025
0.0522005 0.0523943 0.052582 0.0526929 0.0528021 0.0529097 0.0530159 0.0531492 0.0532239 0.0532981
0.0533715 0.0534443 0.053516 0.0536902 0.0538609 0.0540281 0.0541921 0.0543496 0.0544875 0.054624
0.0547589 0.0548923 0.0551154 0.0551293 0.0551433 0.0551573 0.0551712 0.055187 0.0553192 0.0554508
0.0555818 0.0557123 0.0558416 0.0559844 0.0561274 0.0562705 0.0564138 0.0565569 0.0567002 0.0568438
0.0569876 0.0571319 0.0572765 0.0574215 0.0575668 0.0577125 0.0578586 0.058005 0.0581518 0.0582988
0.0584462 0.0585939 0.0587419 0.0588903 0.059039 0.0591879 0.0593372 0.0594868 0.0596367 0.0597869
0.0599374 0.0600882 0.0602393 0.0603907 0.0605424 0.0606944 0.0608467 0.0609994 0.0611523 0.0613056
0.0614592 0.0616131 0.0617674 0.061922 0.0620769 0.0622322 0.0623878 0.0625438 0.0627001 0.0628567
0.0630137 0.0631711 0.0633287 0.0634868 0.0636452 0.0638039 0.063963 0.0641224 0.0642822 0.0644423
0.0646027 0.0647635 0.0649246 0.0650861 0.0652478 0.0654099 0.0655723 0.0657351 0.0658981 0.0660615
0.0662251 0.0663891 0.0665533 0.0667179 0.0668827 0.0670479 0.0672133 0.067379 0.0675362 0.0676937
0.0678514 0.0680094 0.0681372 0.068152 0.0681669 0.0681817 0.0681966 0.0682114 0.0683787 0.0685462
0.0687139 0.0688819 0.0690501 0.0692186 0.0693872 0.0695561 0.0697252 0.0698945 0.070064 0.0702337
0.0704036 0.0705737 0.070744 0.0709144 0.0710851 0.0712558 0.0714268 0.0715979 0.0717693 0.0719407
0.0721123 0.0722841 0.072456 0.072628 0.0728002 0.0729724 0.0731448 0.0733174 0.07349 0.0736628
0.0738356 0.0740085 0.0741816 0.0743547 0.0745279 0.0747011 0.0748744 0.0750478 0.0752213 0.0753948
0.0755684 0.075742 0.0759156 0.0760893 0.0762629 0.0764366 0.0766103 0.076784 0.0769577 0.0771314
0.0773051 0.0774787 0.0776524 0.077826 0.0779996 0.0781731 0.0783466 0.0785201 0.0786935 0.0788669
0.0790402 0.0792135 0.0793868 0.07956 0.0797331 0.0799062 0.0800793 0.0802523 0.0804253 0.0805983
0.0807712 0.0809442 0.0811172 0.0812901 0.081463 0.081636 0.081809 0.081982 0.082155 0.0823281
0.0825013 0.0826746 0.0828479 0.0830213 0.0831947 0.0833682 0.0835418 0.0837155 0.0838893 0.0840633
0.0842373 0.0844114 0.0845857 0.08476 0.0849344 0.085109 0.0852836 0.0854583 0.0856332 0.0858082
0.0859834 0.0861586 0.0863339 0.0865093 0.0866849 0.0868605 0.0870362 0.087212 0.087388 0.087564
0.0877402 0.0879165 0.0880928 0.0882693 0.0884458 0.0886225 0.0887992 0.088976 0.0891529 0.08933
0.0895071 0.0896843 0.0898616 0.090039 0.0902165 0.0903941 0.0905717 0.0907494 0.0909273 0.0911052
0.0912832 0.0914613 0.0916395 0.0918178 0.0919962 0.0921746 0.0923531 0.0925317 0.0927104 0.0928892
0.0930681 0.093247 0.0934261 0.0936053 0.0937845 0.0939637 0.0941431 0.0943225 0.0945021 0.0946818
0.0948616 0.0950414 0.0952213 0.0954014 0.0955815 0.0957617 0.095942 0.0961224 0.0963029 0.0964836
0.0966643 0.0968452 0.0970262 0.0972074 0.0973888 0.0975702 0.0977518 0.0979337 0.0981162 0.0982988
0.0984817 0.0986647 0.0988479 0.0990305 0.0992131 0.0993959 0.0995787 0.0997617 0.0999451 0.100129
0.100312 0.100496 0.10068 0.100864 0.101048 0.101232 0.101417 0.101602 0.101788 0.101973
0.10216 0.102346 0.102533 0.102721 0.102909 0.103098 0.103287 0.103477 0.103667 0.103859
0.104052 0.104245 0.104439 0.104634 0.10483 0.105027 0.105225 0.105423 0.105624 0.105826
0.106029 0.106233 0.106438 0.106645 0.106853 0.107062 0.107272 0.107484 0.107698 0.107913
0.108131 0.108349 0.108569 0.108791 0.109014 0.109238 0.109465 0.109692 0.109922 0.110154
0.110387 0.110622 0.110858 0.111096 0.111335 0.111576 0.111819 0.112063 0.112309 0.112556
0.112805 0.113055 0.113307 0.11356 0.113814 0.11407 0.114327 0.114586 0.114845 0.115106
0.115368 0.115631 0.115895 0.11616 0.116427 0.116694 0.116962 0.117231 0.1175 0.117771
0.118042 0.118313 0.118586 0.118859 0.119132 0.119406 0.11968 0.119955 0.120162 0.120369
0.120577 0.120784 0.120974 0.121046 0.121117 0.121189 0.12126 0.121332 0.121608 0.121884
0.122159 0.122435 0.122711 0.122987 0.123263 0.123539 0.123814 0.12409 0.124365 0.12464
0.124914 0.125189 0.125463 0.125736 0.12601 0.126283 0.126556 0.126829 0.1271 0.127372
0.127643 0.127914 0.128185 0.128454 0.128724 0.128994 0.129263 0.129531 0.129799 0.130067
0.130334 0.130601 0.130868 0.131133 0.131399 0.131665 0.13193 0.132195 0.132458 0.132723
0.132986 0.13325 0.133513 0.133775 0.134037 0.134299 0.134561 0.134823 0.135083 0.135344
0.135605 0.135866 0.136126 0.136385 0.136644 0.136903 0.137162 0.137421 0.137679 0.137937
0.138195 0.138453 0.13871 0.138967 0.139224 0.13948 0.139737 0.139993 0.140099 0.140205
0.140311 0.140417 0.140527 0.140676 0.140825 0.140973 0.141122 0.141271 0.141525 0.14178
0.142035 0.142289 0.142543 0.142797 0.143051 0.143304 0.143558 0.143811 0.144063 0.144316
0.144569 0.144822 0.145074 0.145326 0.145578 0.14583 0.146082 0.146334 0.146584 0.146835
0.147087 0.147338 0.147589 0.147838 0.148088 0.148339 0.148589 0.148839 0.149087 0.149336
0.149586 0.149836 0.150084 0.150331 0.150579 0.150828 0.151077 0.151324 0.151569 0.151816
0.152064 0.152312 0.152558 0.152802 0.153047 0.153294 0.153541 0.153786 0.154028 0.154272
0.154518 0.154763 0.155006 0.155248 0.15549 0.155735 0.155979 0.156221 0.156461 0.156702
0.156945 0.157188 0.157429 0.157668 0.157908 0.158149 0.158391 0.15863 0.158868 0.159107
0.159347 0.159587 0.159826 0.160063 0.160301 0.160539 0.160778 0.161015 0.161251 0.161488
0.161725 0.161962 0.162199 0.162434 0.162669 0.162905 0.16314 0.163376 0.163609 0.163844
0.164078 0.164312 0.164546 0.164779 0.165012 0.165245 0.165478 0.16571 0.165791 0.165872
0.165953 0.166034 0.166113 0.166495 0.166875 0.167254 0.167631 0.167987 0.168805 0.169626
0.170445 0.17126 0.172069 0.173607 0.175152 0.176691 0.178226 0.179758 0.181269 0.182786
0.184301 0.185815 0.187328 0.190339 0.193352 0.196364 0.199374 0.202384 0.208389 0.214396
0.220402 0.226408 0.232414 0.238415 0.244419 0.250423 0.256426 0.262429 0.26843 0.274433
0.280436 0.286439 0.292441 0.298442 0.304444 0.310447 0.316449 0.322451 0.328452 0.334454
0.340456 0.346458 0.352459 0.35846 0.364462 0.370463 0.376465 0.382466 0.388467 0.394468
0.400469 0.406471 0.412472 0.418472 0.422084 0 7.36611e-05 0.000147327 0.000220997 0.000294672
0.000368352 0.000472813 0.000577285 0.000681766 0.000786256 0.000890658 0.00097682 0.00106299 0.00114917 0.00123535
0.00132154 0.00151227 0.00170303 0.00189382 0.00208465 0.00227552 0.00246642 0.00265736 0.00284833 0.00303934
0.00323039 0.00342147 0.0036126 0.00380376 0.00399496 0.00418621 0.00437749 0.00456881 0.00476018 0.00495159
0.00514304 0.00533453 0.00552607 0.00571765 0.00590928 0.00610096 0.00629268 0.00648444 0.00667626 0.00686813
0.00706004 0.007252 0.00744402 0.00763608 0.0078282 0.00802037 0.0082126 0.00840488 0.00859721 0.0087896
0.00898205 0.00917455 0.00936712 0.00955974 0.00975243 0.00994517 0.010138 0.0103308 0.0105238 0.0107168
0.0109098 0.011103 0.0112962 0.0114894 0.0116828 0.0118762 0.0120697 0.0122632 0.0124569 0.0126506
0.0128444 0.0130382 0.0132322 0.0134262 0.0136203 0.0138145 0.0140088 0.0142031 0.0143976 0.0145921
0.0147867 0.0149815 0.0151763 0.0153712 0.0155662 0.0157613 0.0159565 0.0161518 0.0163472 0.0165427
0.0167383 0.0169341 0.0171299 0.0173258 0.0175219 0.0177181 0.0179144 0.0181108 0.0183074 0.018504
0.0187008 0.0188977 0.0190948 0.019292 0.0194893 0.0196868 0.0198844 0.0200821 0.02028 0.0204781
0.0206763 0.0208747 0.0210732 0.0212719 0.0214707 0.0216697 0.0218689 0.0220682 0.0222678 0.0224675
0.0226674 0.0228675 0.0230678 0.0232682 0.0234689 0.0236698 0.0238709 0.0240722 0.0242737 0.0244755
0.0246774 0.0248796 0.0250821 0.0252848 0.0254877 0.0256909 0.0258943 0.026098 0.026302 0.0265062
0.0267107 0.0269155 0.0271206 0.027326 0.0275318 0.0277378 0.0279441 0.0281508 0.0283578 0.0285652
0.0287729 0.028981 0.0291895 0.0293983 0.0296075 0.0298172 0.0298584 0.0298997 0.029941 0.0299823
0.0300226 0.0301919 0.0303615 0.0305314 0.0307016 0.030872 0.0310843 0.031297 0.0315103 0.031724
0.0319383 0.032153 0.0323684 0.0325843 0.0328008 0.0330179 0.0332356 0.0334539 0.0336729 0.0338926
0.034113 0.034334 0.0345559 0.0347785 0.0350019 0.035226 0.035451 0.0356769 0.0359037 0.0361314
0.0363601 0.0365897 0.0368204 0.0370523 0.0372852 0.0375192 0.0377544 0.0379908 0.0382285 0.0384676
0.038708 0.0389499 0.0391933 0.0394384 0.0396852 0.0399335 0.0401835 0.0404354 0.0406893 0.0409453
0.0412032 0.0414633 0.0417258 0.0419909 0.0422587 0.042529 0.0428025 0.0430791 0.0433589 0.0436419
0.0439287 0.0442183 0.044512 0.0448098 0.0451119 0.0454196 0.0457293 0.0460437 0.0463626 0.0466862
0.04702 0.0471754 0.0473322 0.0474901 0.0476488 0.0477261 0.0479331 0.0481415 0.0483512 0.0485621
0.0487815 0.0490808 0.0493821 0.0496851 0.0499871 0.050078 0.0501981 0.050318 0.0504375 0.0505566
0.0506804 0.0508764 0.0510703 0.051262 0.0514514 0.0515749 0.0517797 0.0519809 0.0521787 0.0523729
0.0525786 0.0526046 0.0526306 0.0526565 0.0526823 0.0527073 0.052908 0.053103 0.053293 0.0534782