# vtk DataFile Version 2.0
tracks
ASCII
DATASET POLYDATA
POINTS 19470 float
-1.001 1e-07 0.0011 -0.99955 9.85664e-08 0.00110002 -0.9981 9.71226e-08 0.00110004 -0.99665 9.56684e-08
0.00110007 -0.9952 9.4204e-08 0.0011001 -0.99375 9.27292e-08 0.00110014 -0.99 8.88706e-08 0.00110024
-0.98625 8.5028e-08 0.00110034 -0.9825 8.11844e-08 0.00110044 -0.97875 7.72916e-08 0.00110054 -0.975
7.33033e-08 0.00110068 -0.97125 6.92058e-08 0.00110083 -0.9675 6.51207e-08 0.00110098 -0.96375 6.10342e-08
0.00110113 -0.96 5.68942e-08 0.00110129 -0.95625 5.26509e-08 0.00110145 -0.9525 4.82995e-08 0.00110162
-0.94875 4.39515e-08 0.00110179 -0.945 3.96019e-08 0.00110196 -0.94125 3.51964e-08 0.00110213 -0.9375
3.06837e-08 0.00110231 -0.93375 2.60578e-08 0.00110249 -0.93 2.14361e-08 0.00110266 -0.92625 1.68128e-08
0.00110284 -0.9225 1.21353e-08 0.00110302 -0.91875 7.35439e-09 0.0011032 -0.917621 5.88351e-09 0.00110326
-0.916492 4.41291e-09 0.00110332 -0.915363 2.94215e-09 0.00110337 -0.914234 1.47122e-09 0.00110343 -0.913105
1.80996e-17 0.00110348 -0.910484 -3.4159e-09 0.00110361 -0.907863 -6.83269e-09 0.00110374 -0.905242 -1.02802e-08
0.00110387 -0.902621 -1.37782e-08 0.00110401 -0.9 -1.73267e-08 0.00110414 -0.89625 -2.24745e-08 0.00110433
-0.8925 -2.77284e-08 0.00110453 -0.88875 -3.3087e-08 0.00110473 -0.885 -3.8501e-08 0.00110494 -0.88125
-4.39173e-08 0.00110514 -0.8775 -4.93266e-08 0.00110535 -0.87375 -5.48472e-08 0.00110556 -0.87 -6.04699e-08
0.00110577 -0.86625 -6.61472e-08 0.00110599 -0.8625 -7.18268e-08 0.0011062 -0.85875 -7.74934e-08 0.00110642
-0.855 -8.32721e-08 0.00110664 -0.85125 -8.91471e-08 0.00110687 -0.8475 -9.50739e-08 0.0011071 -0.84375
-1.01003e-07 0.00110733 -0.84 -1.06928e-07 0.00110756 -0.83625 -1.12953e-07 0.0011078 -0.8325 -1.19071e-07
0.00110804 -0.82875 -1.25239e-07 0.00110828 -0.825 -1.31409e-07 0.00110853 -0.82125 -1.37552e-07 0.00110877
-0.8175 -1.43814e-07 0.00110903 -0.81375 -1.50161e-07 0.00110929 -0.81 -1.56557e-07 0.00110955 -0.80625
-1.62955e-07 0.00110981 -0.8025 -1.69317e-07 0.00111007 -0.79875 -1.75801e-07 0.00111034 -0.795 -1.82366e-07
0.00111062 -0.79125 -1.88975e-07 0.0011109 -0.7875 -1.95587e-07 0.00111118 -0.78375 -2.02191e-07 0.00111146
-0.78 -2.08888e-07 0.00111174 -0.77625 -2.15664e-07 0.00111204 -0.7725 -2.22485e-07 0.00111234 -0.76875
-2.29309e-07 0.00111264 -0.765 -2.36123e-07 0.00111294 -0.76125 -2.43035e-07 0.00111325 -0.7575 -2.50028e-07
0.00111356 -0.75375 -2.57066e-07 0.00111388 -0.75 -2.64109e-07 0.0011142 -0.74625 -2.71082e-07 0.00111453
-0.7425 -2.7821e-07 0.00111486 -0.73875 -2.85415e-07 0.0011152 -0.735 -2.92665e-07 0.00111554 -0.73125
-2.99919e-07 0.00111588 -0.7275 -3.0709e-07 0.00111623 -0.72375 -3.14424e-07 0.00111658 -0.72 -3.21829e-07
0.00111695 -0.71625 -3.29274e-07 0.00111732 -0.7125 -3.36725e-07 0.00111769 -0.70875 -3.44075e-07 0.00111806
-0.705 -3.51606e-07 0.00111844 -0.70125 -3.59205e-07 0.00111883 -0.6975 -3.66845e-07 0.00111923 -0.69375
-3.74491e-07 0.00111963 -0.69 -3.82123e-07 0.00112002 -0.68625 -3.89848e-07 0.00112043 -0.6825 -3.97641e-07
0.00112085 -0.67875 -4.05474e-07 0.00112128 -0.675 -4.13313e-07 0.00112171 -0.67125 -4.21138e-07 0.00112214
-0.6675 -4.29062e-07 0.00112258 -0.66375 -4.37057e-07 0.00112303 -0.66 -4.45094e-07 0.00112349 -0.65625
-4.53137e-07 0.00112395 -0.6525 -4.61015e-07 0.00112441 -0.64875 -4.69147e-07 0.00112488 -0.645 -4.7735e-07
0.00112537 -0.64125 -4.85595e-07 0.00112586 -0.6375 -4.93848e-07 0.00112636 -0.63375 -5.02088e-07 0.00112685
-0.63 -5.1043e-07 0.00112736 -0.62625 -5.18841e-07 0.00112788 -0.6225 -5.27294e-07 0.00112842 -0.61875
-5.35754e-07 0.00112895 -0.615 -5.44204e-07 0.00112948 -0.61125 -5.52763e-07 0.00113003 -0.6075 -5.61394e-07
0.00113059 -0.60375 -5.7007e-07 0.00113116 -0.6 -5.78755e-07 0.00113173 -0.59625 -5.87431e-07 0.0011323
-0.5925 -5.96156e-07 0.00113288 -0.58875 -6.0489e-07 0.00113345 -0.585 -6.13673e-07 0.00113403 -0.58125
-6.22531e-07 0.00113463 -0.5775 -6.31145e-07 0.00113524 -0.57375 -6.40118e-07 0.00113586 -0.57 -6.49101e-07
0.00113647 -0.56625 -6.58134e-07 0.0011371 -0.5625 -6.67244e-07 0.00113774 -0.55875 -6.76056e-07 0.0011384
-0.555 -6.85289e-07 0.00113906 -0.55125 -6.94533e-07 0.00113972 -0.5475 -7.03828e-07 0.0011404 -0.54375
-7.13204e-07 0.00114109 -0.54 -7.22651e-07 0.00114179 -0.53625 -7.32161e-07 0.0011425 -0.5325 -7.41682e-07
0.00114321 -0.52875 -7.51261e-07 0.00114393 -0.525 -7.60924e-07 0.00114467 -0.52125 -7.70161e-07 0.00114543
-0.5175 -7.79973e-07 0.00114619 -0.51375 -7.89799e-07 0.00114695 -0.51 -7.99682e-07 0.00114772 -0.50625
-8.0965e-07 0.00114851 -0.5025 -8.19102e-07 0.00114932 -0.49875 -8.29229e-07 0.00115013 -0.495 -8.39371e-07
0.00115094 -0.49125 -8.4957e-07 0.00115176 -0.4875 -8.59848e-07 0.0011526 -0.48375 -8.70216e-07 0.00115346
-0.48 -8.80665e-07 0.00115433 -0.47625 -8.91131e-07 0.00115519 -0.4725 -9.01656e-07 0.00115606 -0.46875
-9.12264e-07 0.00115695 -0.465 -9.22972e-07 0.00115786 -0.46125 -9.3377e-07 0.00115877 -0.4575 -9.44587e-07
0.00115968 -0.45375 -9.55472e-07 0.0011606 -0.45 -9.66452e-07 0.00116154 -0.44625 -9.77557e-07 0.00116249
-0.4425 -9.8876e-07 0.00116345 -0.43875 -9.99984e-07 0.0011644 -0.435 -1.01128e-06 0.00116537 -0.43125
-1.02268e-06 0.00116634 -0.4275 -1.03304e-06 0.00116733 -0.42375 -1.0447e-06 0.00116832 -0.42 -1.05638e-06
0.00116931 -0.41625 -1.06813e-06 0.00117031 -0.4125 -1.07997e-06 0.00117131 -0.40875 -1.09055e-06 0.00117232
-0.405 -1.10267e-06 0.00117333 -0.40125 -1.11482e-06 0.00117434 -0.3975 -1.12703e-06 0.00117535 -0.39375
-1.13934e-06 0.00117635 -0.39 -1.15181e-06 0.00117736 -0.38625 -1.16442e-06 0.00117837 -0.3825 -1.17706e-06
0.00117937 -0.37875 -1.18976e-06 0.00118037 -0.375 -1.20254e-06 0.00118135 -0.37125 -1.21553e-06 0.00118232
-0.3675 -1.22866e-06 0.00118328 -0.36375 -1.24182e-06 0.00118425 -0.36 -1.25505e-06 0.00118519 -0.35625
-1.26837e-06 0.0011861 -0.3525 -1.2795e-06 0.00118696 -0.34875 -1.29321e-06 0.00118783 -0.345 -1.30696e-06
0.0011887 -0.34125 -1.32077e-06 0.00118953 -0.3375 -1.33466e-06 0.00119028 -0.33375 -1.34882e-06 0.00119098
-0.33 -1.36316e-06 0.00119167 -0.32625 -1.37754e-06 0.00119237 -0.3225 -1.39196e-06 0.00119299 -0.31875
-1.40644e-06 0.0011935 -0.315 -1.42121e-06 0.00119392 -0.31125 -1.43619e-06 0.00119433 -0.3075 -1.4512e-06
0.00119474 -0.30375 -1.46626e-06 0.00119504 -0.3 -1.48136e-06 0.00119518 -0.29625 -1.49264e-06 0.00119517
-0.2925 -1.50826e-06 0.00119492 -0.28875 -1.52389e-06 0.00119443 -0.285 -1.53953e-06 0.00119378 -0.28125
-1.55521e-06 0.00119312 -0.2775 -1.56633e-06 0.00119247 -0.27375 -1.58253e-06 0.00119148 -0.27 -1.59865e-06
0.00119015 -0.26625 -1.61471e-06 0.00118858 -0.2625 -1.63082e-06 0.00118702 -0.25875 -1.6415e-06 0.00118546
-0.255 -1.65812e-06 0.00118341 -0.25125 -1.67455e-06 0.00118089 -0.2475 -1.69087e-06 0.00117803 -0.24375
-1.70722e-06 0.00117518 -0.24 -1.72418e-06 0.00117233 -0.23625 -1.74105e-06 0.00116886 -0.2325 -1.7576e-06
0.00116475 -0.22875 -1.77395e-06 0.00116022 -0.225 -1.79032e-06 0.00115572 -0.22125 -1.79908e-06 0.00115124
-0.2175 -1.81575e-06 0.0011459 -0.21375 -1.83189e-06 0.00113969 -0.21 -1.84772e-06 0.00113299 -0.20625
-1.86356e-06 0.00112632 -0.2025 -1.87062e-06 0.00111971 -0.19875 -1.88706e-06 0.00111188 -0.195 -1.90277e-06
0.00110286 -0.19125 -1.91811e-06 0.00109325 -0.1875 -1.93347e-06 0.00108373 -0.18375 -1.94948e-06 0.00107431
-0.18 -1.96449e-06 0.00106337 -0.17625 -1.97837e-06 0.00105092 -0.1725 -1.9918e-06 0.00103796 -0.16875
-2.00525e-06 0.00102517 -0.165 -2.01967e-06 0.00101257 -0.16125 -2.03263e-06 0.00099818 -0.1575 -2.04407e-06
0.00098205 -0.15375 -2.05516e-06 0.000965683 -0.15 -2.06633e-06 0.000949619 -0.14625 -2.07858e-06 0.000933848
-0.1425 -2.08798e-06 0.000916081 -0.13875 -2.0946e-06 0.000896378 -0.135 -2.10116e-06 0.000876939 -0.13125
-2.10791e-06 0.000857958 -0.1275 -2.10115e-06 0.00083942 -0.12375 -2.10655e-06 0.000818817 -0.12 -2.11009e-06
0.000796558 -0.11625 -2.11393e-06 0.000774941 -0.1125 -2.11807e-06 0.000753946 -0.10875 -2.10832e-06 0.00073355
-0.105 -2.10891e-06 0.00071113 -0.10125 -2.10699e-06 0.00068775 -0.0975 -2.10559e-06 0.000665164 -0.0937499
-2.10469e-06 0.000643343 -0.0899999 -2.10495e-06 0.000622255 -0.0862499 -2.10421e-06 0.000599633 -0.0824999 -2.10358e-06
0.000576949 -0.0787499 -2.10352e-06 0.000555128 -0.0749999 -2.10398e-06 0.000534136 -0.0712499 -2.1054e-06 0.000513936
-0.0674999 -2.11102e-06 0.000493654 -0.0637499 -2.11768e-06 0.000474019 -0.0599999 -2.12468e-06 0.000455152 -0.0562499
-2.132e-06 0.000437025 -0.0524999 -2.12567e-06 0.000419602 -0.0487498 -2.13309e-06 0.000404523 -0.0449998 -2.14077e-06
0.00038997 -0.0412498 -2.14872e-06 0.000375923 -0.0374998 -2.15691e-06 0.000362368 -0.0337498 -2.16538e-06 0.000349283
-0.0299998 -2.17317e-06 0.000340656 -0.0262498 -2.18113e-06 0.000332235 -0.0224998 -2.18926e-06 0.000324013 -0.0187499
-2.19757e-06 0.000315987 -0.0149999 -2.20577e-06 0.000308152 -0.0112499 -2.22035e-06 0.000304728 -0.0074999 -2.23498e-06
0.000301341 -0.00374991 -2.24967e-06 0.00029799 6.11909e-08 -2.26441e-06 0.000294675 0.00375005 -2.26712e-06 0.000291396
0.00750005 -2.28018e-06 0.000288155 0.01125 -2.29328e-06 0.000284949 0.015 -2.30641e-06 0.000281778 0.01875
-2.31958e-06 0.00027864 0.0225 -2.33122e-06 0.000277605 0.02625 -2.35226e-06 0.000276575 0.03 -2.37334e-06
0.000275549 0.03375 -2.39446e-06 0.000274526 0.0375 -2.41563e-06 0.000273507 0.04125 -2.43259e-06 0.00027302
0.045 -2.45791e-06 0.000272535 0.04875 -2.4833e-06 0.00027205 0.0525 -2.50875e-06 0.000271566 0.05625
-2.53426e-06 0.000271084 0.06 -2.56583e-06 0.000270886 0.06375 -2.59643e-06 0.000270689 0.0675 -2.62711e-06
0.000270492 0.07125 -2.65787e-06 0.000270295 0.075 -2.6887e-06 0.000270099 0.07875 -2.7176e-06 0.000270052
0.0825 -2.7536e-06 0.000270005 0.08625 -2.78969e-06 0.000269959 0.09 -2.82587e-06 0.000269913 0.09375
-2.86214e-06 0.000269866 0.0975 -2.89589e-06 0.000269871 0.10125 -2.93679e-06 0.000269877 0.105 -2.97779e-06
0.000269883 0.10875 -3.01889e-06 0.000269889 0.1125 -3.06009e-06 0.000269895 0.11625 -3.10944e-06 0.000269914
[...]
POINT_DATA 19470
FIELD attributes 3
age 1 19470 float
0 7.30159e-05 0.000146036 0.000219059 0.000292086 0.000365117 0.000553999 0.000742881 0.000931763 0.00112066 0.00130959
0.00149856 0.00168752 0.00187649 0.00206547 0.00225448 0.00244353 0.00263259 0.00282164 0.00301071 0.00319981
0.00338896 0.0035781 0.00376725 0.00395641 0.00414562 0.00420259 0.00425956 0.00431653 0.0043735 0.00443048
0.00456275 0.00469503 0.00482731 0.00495962 0.00509195 0.0052813 0.0054707 0.00566014 0.00584961 0.00603907
0.00622854 0.00641806 0.00660762 0.00679721 0.0069868 0.0071764 0.00736604 0.00755573 0.00774546 0.00793518
0.0081249 0.00831468 0.00850452 0.00869439 0.00888425 0.00907412 0.00926404 0.00945403 0.00964405 0.00983407
0.0100241 0.0102142 0.0104043 0.0105945 0.0107847 0.0109749 0.0111651 0.0113555 0.0115458 0.0117362
0.0119266 0.012117 0.0123075 0.0124981 0.0126886 0.0128792 0.0130698 0.0132605 0.0134513 0.0136421
0.0138328 0.0140237 0.0142146 0.0144056 0.0145966 0.0147876 0.0149787 0.0151699 0.0153611 0.0155524
0.0157436 0.0159349 0.0161264 0.0163179 0.0165094 0.0167009 0.0168925 0.0170843 0.0172761 0.0174679
0.0176597 0.0178516 0.0180436 0.0182358 0.0184279 0.01862 0.0188122 0.0190046 0.0191971 0.0193896
0.019582 0.0197746 0.0199674 0.0201602 0.0203531 0.0205459 0.0207388 0.0209316 0.0211246 0.0213177
0.021511 0.0217042 0.0218975 0.0220909 0.0222844 0.0224782 0.0226719 0.0228656 0.0230595 0.0232535
0.0234477 0.023642 0.0238362 0.0240306 0.0242251 0.0244199 0.0246147 0.0248095 0.0250044 0.0251996
0.025395 0.0255904 0.0257858 0.0259814 0.0261772 0.0263733 0.0265693 0.0267654 0.0269617 0.0271582
0.027355 0.0275518 0.0277487 0.0279457 0.028143 0.0283407 0.0285383 0.028736 0.0289339 0.0291321
0.0293306 0.0295292 0.0297278 0.0299266 0.0301258 0.0303253 0.0305249 0.0307245 0.0309243 0.0311246
0.0313252 0.0315259 0.0317266 0.0319276 0.032129 0.0323309 0.0325328 0.0327347 0.032937 0.0331397
0.0333429 0.0335461 0.0337494 0.033953 0.0341571 0.0343618 0.0345664 0.0347711 0.0349762 0.0351818
0.035388 0.0355942 0.0358004 0.036007 0.0362142 0.036422 0.0366304 0.0368394 0.0370488 0.0372582
0.0374676 0.0376776 0.0378882 0.0380992 0.0383101 0.038521 0.0387325 0.0389445 0.0391569 0.0393692
0.0395815 0.0397942 0.0400073 0.0402207 0.040434 0.0406472 0.0408607 0.0410744 0.0412883 0.041502
0.0417155 0.0419291 0.0421426 0.042356 0.0425692 0.0427821 0.0429946 0.0432067 0.0434183 0.0436297
0.0438407 0.0440508 0.04426 0.0444686 0.0446769 0.0448847 0.0450911 0.045296 0.0455003 0.0457043
0.0459078 0.0461092 0.0463087 0.0465078 0.0467066 0.0469051 0.0471008 0.0472946 0.0474882 0.0476817
0.0478749 0.0480647 0.0482532 0.0484417 0.0486301 0.0488185 0.0490032 0.0491874 0.0493717 0.0495562
0.0497408 0.049922 0.0501035 0.0502851 0.050467 0.050649 0.050829 0.0510091 0.0511894 0.0513699
0.0515506 0.0517305 0.0519105 0.0520906 0.0522708 0.0524511 0.0526314 0.0528118 0.0529923 0.0531728
0.0533535 0.0535342 0.0537149 0.0538956 0.0540764 0.0542575 0.0544385 0.0546196 0.0548007 0.0549818
0.0551633 0.0553447 0.0555261 0.0557076 0.055889 0.0560708 0.0562525 0.0564343 0.056616 0.0567978
0.0569798 0.0571619 0.0573439 0.057526 0.057708 0.0578904 0.0580727 0.058255 0.0584373 0.0586197
0.0588023 0.0589849 0.0591675 0.0593502 0.0595328 0.0597157 0.0598986 0.0600815 0.0602644 0.0604474
0.0606306 0.0608138 0.060997 0.0611802 0.0613635 0.061547 0.0617305 0.061914 0.0620976 0.0622811
0.0624649 0.0626487 0.0628325 0.0630163 0.0632001 0.0633842 0.0635683 0.0637524 0.0639365 0.0641206
0.064305 0.0644893 0.0646736 0.064858 0.0650423 0.0652269 0.0654115 0.0655961 0.0657807 0.0659652
0.06615 0.0663348 0.0665196 0.0667044 0.0668892 0.0670742 0.0672593 0.0674445 0.0676296 0.0678148
0.0679999 0.0681852 0.0683706 0.0685559 0.0687412 0.0689265 0.0691119 0.0692974 0.0694828 0.0696682
0.0698537 0.0700393 0.0702248 0.0704104 0.0705959 0.0707815 0.0709672 0.0711528 0.0713385 0.0715242
0.0717098 0.0718956 0.0720813 0.0722671 0.0724528 0.0726386 0.0728244 0.0730102 0.073196 0.0733819
0.0735677 0.0737535 0.0739394 0.0741253 0.0743111 0.074497 0.0746829 0.0748688 0.0750546 0.0752405
0.0754264 0.0756123 0.0757982 0.0759841 0.07617 0.0763559 0.0765417 0.0767276 0.0769134 0.0770993
0.0772852 0.077471 0.0776569 0.0778427 0.0780285 0.0782143 0.0784001 0.0785859 0.0787717 0.0789575
0.0791433 0.079329 0.0795148 0.0797005 0.0798863 0.080072 0.0802577 0.0804435 0.0806292 0.0808149
0.0810007 0.0811864 0.0813721 0.0815579 0.0817436 0.0819293 0.0821151 0.0823008 0.0824865 0.0826723
0.0828581 0.0830438 0.0832296 0.0834154 0.0836012 0.083787 0.0839728 0.0841587 0.0843445 0.0845303
0.0847162 0.0849021 0.085088 0.0852739 0.0854598 0.0856458 0.0858318 0.0860177 0.0862037 0.0863897
0.0865757 0.0867618 0.0869478 0.0871338 0.0873199 0.087506 0.0876921 0.0878782 0.0880643 0.0882504
0.0884366 0.0886227 0.0888089 0.088995 0.0891812 0.0893674 0.0895536 0.0897399 0.0899261 0.0901123
0.0902986 0.0904848 0.0906711 0.0908573 0.0910436 0.0912299 0.0914162 0.0916025 0.0917888 0.0919751
0.0921614 0.0923478 0.0925341 0.0927204 0.0929068 0.0930931 0.0932795 0.0934659 0.0936522 0.0938386
0.094025 0.0942114 0.0943978 0.0945842 0.0947706 0.0949571 0.0951435 0.0953299 0.0955164 0.0957028
0.0958893 0.0960758 0.0962622 0.0964487 0.0966352 0.0968217 0.0970083 0.0971949 0.0973814 0.097568
0.0977546 0.0979413 0.0981279 0.0983146 0.0985012 0.0986879 0.0988746 0.0990613 0.0992481 0.0994348
0.0996215 0.0998083 0.0999951 0.100182 0.100369 0.100555 0.100742 0.100929 0.101116 0.101303
0.10149 0.101677 0.101864 0.102051 0.102237 0.102424 0.102612 0.102799 0.102986 0.103173
0.10336 0.103548 0.103735 0.103923 0.10411 0.104297 0.104485 0.104673 0.104861 0.105049
0.105236 0.105425 0.105613 0.105801 0.105989 0.106178 0.106366 0.106555 0.106744 0.106932
0.107121 0.10731 0.107499 0.107688 0.107878 0.108067 0.108256 0.108446 0.108635 0.108825
0.109014 0.109204 0.109394 0.109584 0.109774 0.109964 0.110154 0.110344 0.110534 0.110724
0.110914 0.111104 0.111294 0.111485 0.111675 0.111818 0.111961 0.112104 0.112247 0.112396
0.112442 0.112488 0.112534 0.11258 0.112626 0.112816 0.113006 0.113197 0.113387 0.113577
0.113768 0.113958 0.114148 0.114339 0.114529 0.114719 0.11491 0.1151 0.115291 0.115481
0.115671 0.115862 0.116052 0.116243 0.116433 0.116623 0.116814 0.117004 0.117194 0.117385
0.117575 0.117766 0.117956 0.118146 0.118337 0.118527 0.118717 0.118908 0.119098 0.119288
0.119479 0.119669 0.119859 0.12005 0.12024 0.12043 0.12062 0.120811 0.121001 0.121191
0.121382 0.121572 0.121762 0.121952 0.122143 0.122333 0.122523 0.122713 0.122903 0.123094
0.123284 0.123474 0.123664 0.123854 0.124044 0.124234 0.124425 0.124615 0.124805 0.124995
0.125185 0.125375 0.125565 0.125755 0.125945 0.126135 0.126325 0.126515 0.126705 0.126895
0.127085 0.127275 0.127465 0.127655 0.127845 0.128035 0.128225 0.128415 0.128605 0.128795
0.128985 0.129175 0.129365 0.129555 0.129745 0.129934 0.130124 0.130314 0.130504 0.130694
0.130883 0.131073 0.131263 0.131453 0.131643 0.131832 0.132022 0.132212 0.132401 0.132591
0.132781 0.13297 0.13316 0.13335 0.133539 0.133729 0.133918 0.134108 0.134298 0.134487
0.134677 0.134866 0.135056 0.135245 0.135435 0.135624 0.135814 0.136003 0.136193 0.136382
0.136572 0.136761 0.136951 0.13714 0.137329 0.137519 0.137708 0.137897 0.138087 0.138276
0.138465 0.138655 0.138844 0.139033 0.139223 0.139412 0.139601 0.13979 0.139979 0.140169
0.140358 0.140547 0.140736 0.140925 0.141114 0.141303 0.141492 0.141682 0.141871 0.14206
0.142249 0.142438 0.142627 0.142816 0.143005 0.143194 0.143383 0.143572 0.143761 0.14395
0.144138 0.144327 0.144516 0.144705 0.144894 0.145083 0.145271 0.14546 0.145649 0.145838
0.146027 0.146215 0.146404 0.146593 0.146782 0.14697 0.147159 0.147348 0.147537 0.147726
0.147914 0.148103 0.148291 0.14848 0.148669 0.148857 0.149046 0.149235 0.149423 0.149612
0.1498 0.149989 0.150177 0.150366 0.150555 0.150743 0.150932 0.15112 0.151309 0.151497
0.151874 0.15225 0.152626 0.153002 0.153379 0.15413 0.15488 0.155631 0.156382 0.157133
0.158633 0.160134 0.161635 0.163135 0.164635 0.166136 0.167636 0.169136 0.170636 0.172136
0.175137 0.178137 0.181137 0.184137 0.187137 0.193137 0.199137 0.205138 0.211138 0.217138
0.223138 0.229138 0.235138 0.241138 0.247138 0.253138 0.259138 0.265138 0.271138 0.277138
0.283138 0.289138 0.295138 0.301138 0.307138 0.313138 0.319138 0.325138 0.331138 0.337138
0.343138 0.349138 0.355138 0.361138 0.367139 0.373139 0.379139 0.385139 0.391139 0.397139
0.403139 0.403183 0 7.369e-05 0.000147384 0.000221082 0.000294784 0.000368489 0.00055912 0.000749785
0.000940483 0.00113122 0.00132198 0.00146311 0.00160425 0.00174541 0.00188659 0.00201242 0.00206521 0.002118
0.00217079 0.00222358 0.00227637 0.00246735 0.00265837 0.00284942 0.00304051 0.00323164 0.00342281 0.00361401
0.00380526 0.00399655 0.00418788 0.00437925 0.00457066 0.00476212 0.00495362 0.00514517 0.00533675 0.00552839
0.00572007 0.00591179 0.00610357 0.00629539 0.00648726 0.00667918 0.00687115 0.00706317 0.00725524 0.00744737
0.00763955 0.00783178 0.00802406 0.00821641 0.0084088 0.00860126 0.00879377 0.00898634 0.00917897 0.00937166
0.00956442 0.00975723 0.00995011 0.0101431 0.0103361 0.0105291 0.0107223 0.0109155 0.0111088 0.0113021
0.0114955 0.011689 0.0118826 0.0120762 0.01227 0.0124638 0.0126576 0.0128516 0.0130456 0.0132397
0.0134339 0.0136282 0.0138226 0.0140171 0.0142116 0.0144062 0.014601 0.0147958 0.0149907 0.0151857
0.0153809 0.0155761 0.0157714 0.0159668 0.0161623 0.016358 0.0165537 0.0167496 0.0169455 0.0171416
0.0173378 0.0175341 0.0177305 0.0179271 0.0181238 0.0183206 0.0185175 0.0187146 0.0189118 0.0191091
0.0193066 0.0195042 0.019702 0.0198999 0.020098 0.0202962 0.0204946 0.0206931 0.0208918 0.0210906
0.0212896 0.0214888 0.0216882 0.0218877 0.0220874 0.0222873 0.0224874 0.0226877 0.0228881 0.0230888
0.0232897 0.0234908 0.023692 0.0238935 0.0240952 0.0242972 0.0244994 0.0247018 0.0249044 0.0251073
0.0253104 0.0255138 0.0257174 0.0259213 0.0261254 0.0263299 0.0265346 0.0267396 0.0269448 0.0271504
0.0273563 0.0275625 0.027769 0.0279759 0.028183 0.0283905 0.0285984 0.0288066 0.0290151 0.0292241
0.0294334 0.0296431 0.0298532 0.0300637 0.0302746 0.0304859 0.0306977 0.0309099 0.0311225 0.0313356
0.0315492 0.0317633 0.0319779 0.0321929 0.0324085 0.0326247 0.0328414 0.0330586 0.0332764 0.0334948
0.0337137 0.0339333 0.0341536 0.0343744 0.0345959 0.0348182 0.0350411 0.0352647 0.035489 0.0357141
0.0359399 0.0361665 0.0363939 0.0366221 0.0368512 0.0370812 0.037312 0.0375437 0.0377763 0.0380098
0.0382444 0.0384799 0.0387164 0.0389539 0.0391925 0.0394322 0.0396731 0.039915 0.040158 0.0404022
0.0406475 0.0408941 0.0411419 0.0413909 0.0416413 0.0418929 0.0421459 0.0424002 0.0426557 0.0429123
0.0431702 0.0434293 0.0436901 0.0439521 0.0442153 0.0444797 0.0447451 0.0450125 0.0452803 0.0455487
0.0458176 0.046087 0.0463589 0.0464866 0.0466143 0.0467419 0.0468694 0.0469494 0.0471029 0.0472563
0.0474094 0.0475624 0.0477165 0.0479873 0.0482564 0.0485236 0.0487889 0.0490573 0.0492036 0.0493486
0.0494925 0.0496353 0.0497454 0.0498658 0.0499853 0.0501041 0.0502222 0.0503404 0.0505878 0.0508301
0.0510674 0.0513 0.0515292 0.0515447 0.0515601 0.0515755 0.0515909 0.0516063 0.0518129 0.052015
0.0522126 0.052406 0.0525934 0.0527047 0.0528144 0.0529224 0.053029 0.0531629 0.0532373 0.053311
0.0533841 0.0534566 0.0535279 0.0537023 0.053873 0.0540403 0.0542044 0.054362 0.0545004 0.0546373
0.0547727 0.0549066 0.0551282 0.0551428 0.0551574 0.0551721 0.0551867 0.0552033 0.0553348 0.0554658
0.0555963 0.0557262 0.0558548 0.0559977 0.0561408 0.056284 0.0564274 0.0565706 0.056714 0.0568576
0.0570016 0.0571459 0.0572906 0.0574357 0.0575811 0.0577269 0.057873 0.0580195 0.0581664 0.0583135
0.058461 0.0586088 0.0587569 0.0589053 0.0590541 0.0592031 0.0593525 0.0595022 0.0596521 0.0598024
0.059953 0.0601038 0.060255 0.0604064 0.0605582 0.0607103 0.0608627 0.0610153 0.0611684 0.0613217
0.0614753 0.0616293 0.0617836 0.0619382 0.0620932 0.0622485 0.0624041 0.0625601 0.0627165 0.0628732
0.0630302 0.0631875 0.0633453 0.0635033 0.0636618 0.0638205 0.0639797 0.0641391 0.0642989 0.064459
0.0646195 0.0647803 0.0649415 0.0651029 0.0652648 0.0654269 0.0655893 0.0657521 0.0659152 0.0660785
0.0662422 0.0664062 0.0665704 0.066735 0.0668999 0.067065 0.0672304 0.0673961 0.067562 0.0677282
0.0678946 0.0680613 0.0682283 0.0683955 0.0685629 0.0687306 0.0688985 0.0690667 0.069235 0.0694036
0.0695724 0.0697413 0.0699105 0.07008 0.0702496 0.0704193 0.0705893 0.0707595 0.0709298 0.0711003
0.071271 0.0714419 0.0716129 0.0717841 0.0719554 0.0721269 0.0722986 0.0724704 0.0726423 0.0728144
0.0729865 0.0731589 0.0733313 0.0735039 0.0736765 0.0738493 0.0740222 0.0741952 0.0743683 0.0745415
0.0747147 0.074888 0.0750614 0.0752349 0.0754084 0.075582 0.0757556 0.0759293 0.076103 0.0762767
0.0764504 0.0766242 0.0767979 0.0769717 0.0771454 0.0773192 0.0774929 0.0776666 0.0778403 0.078014
0.0781876 0.0783611 0.0785347 0.0787082 0.0788816 0.079055 0.0792284 0.0794017 0.0795749 0.0797481
0.0799212 0.0800943 0.0802673 0.0804403 0.0806133 0.0807862 0.0809591 0.081132 0.0813049 0.0814778
0.0816507 0.0818236 0.0819965 0.0821695 0.0823425 0.0825155 0.0826886 0.0828618 0.083035 0.0832083
0.0833817 0.0835551 0.0837286 0.0839023 0.084076 0.0842499 0.0844238 0.0845979 0.0847721 0.0849463
0.0851207 0.0852951 0.0854697 0.0856444 0.0858193 0.0859942 0.0861693 0.0863445 0.0865198 0.0866952
0.0868706 0.0870463 0.087222 0.0873978 0.0875738 0.0877498 0.087926 0.0881022 0.0882786 0.088455
0.0886316 0.0888082 0.0889849 0.0891617 0.0893386 0.0895156 0.0896927 0.0898699 0.0900471 0.0902244
0.0904018 0.0905792 0.0907568 0.0909344 0.0911121 0.0912898 0.0914677 0.0916456 0.0918235 0.0920015
0.0921796 0.0923578 0.092536 0.0927143 0.0928926 0.0930711 0.0932496 0.0934282 0.0936068 0.0937855
0.0939643 0.0941431 0.094322 0.094501 0.0946801 0.0948592 0.0950385 0.0952178 0.0953972 0.0955767
0.0957562 0.0959358 0.0961156 0.0962954 0.0964754 0.0966554 0.0968356 0.0970158 0.0971963 0.0973769
0.0975576 0.0977384 0.0979194 0.0981011 0.0982829 0.098465 0.0986472 0.0988295 0.0990111 0.0991929
0.0993747 0.0995566 0.0997386 0.0999209 0.100103 0.100286 0.100468 0.100651 0.100834 0.101017
0.1012 0.101383 0.101567 0.101751 0.101935 0.10212 0.102305 0.10249 0.102676 0.102863
0.103049 0.103237 0.103425 0.103614 0.103804 0.103995 0.104186 0.104379 0.104572 0.104766
0.104961 0.105157 0.105354 0.105553 0.105753 0.105954 0.106157 0.106361 0.106566 0.106772
0.10698 0.107189 0.107399 0.107612 0.107826 0.108042 0.108259 0.108478 0.108699 0.108921
0.109145 0.10937 0.109597 0.109821 0.110047 0.110275 0.110505 0.110716 0.110724 0.110733
0.110742 0.11075 0.110759 0.110996 0.111235 0.111476 0.111718 0.111961 0.112206 0.112453
0.112701 0.112951 0.113202 0.113455 0.113709 0.113964 0.11422 0.114478 0.114737 0.114997
0.115257 0.11552 0.115783 0.116047 0.116312 0.116578 0.116845 0.117113 0.117382 0.117651
0.117921 0.118191 0.118463 0.118735 0.119007 0.11928 0.119553 0.119827 0.120102 0.120376
0.120651 0.120926 0.121201 0.121477 0.121753 0.122029 0.122305 0.122582 0.122832 0.123082
0.123332 0.123582 0.123815 0.123845 0.123875 0.123905 0.123935 0.123965 0.124241 0.124518
0.124795 0.125071 0.125347 0.125623 0.125899 0.126175 0.12645 0.126726 0.127001 0.127275
0.12755 0.127824 0.128098 0.128371 0.128645 0.128918 0.129191 0.129464 0.129736 0.130008
0.130279 0.13055 0.130821 0.131091 0.131362 0.131632 0.131903 0.132172 0.132441 0.13271
0.132978 0.133246 0.133515 0.133782 0.134049 0.134317 0.134584 0.134851 0.135117 0.135383
0.135649 0.135915 0.13618 0.136445 0.13671 0.136975 0.13724 0.137505 0.137768 0.138032
0.138296 0.13856 0.138824 0.139086 0.139349 0.139612 0.139874 0.140137 0.140357 0.140578
0.140799 0.14102 0.141257 0.141294 0.141331 0.141369 0.141406 0.141443 0.141703 0.141964
0.142224 0.142484 0.142743 0.143002 0.143261 0.14352 0.143779 0.144037 0.144294 0.144553
0.14481 0.145068 0.145325 0.145581 0.145838 0.146095 0.146351 0.146607 0.146861 0.147117
0.147372 0.147627 0.147881 0.148133 0.148388 0.148642 0.148895 0.149148 0.149399 0.149652
0.149904 0.150156 0.150407 0.150656 0.150907 0.151159 0.151409 0.151659 0.151907 0.152156
0.152406 0.152655 0.152904 0.15315 0.153398 0.153646 0.153894 0.154141 0.154386 0.154633
0.154879 0.155126 0.155372 0.155615 0.15586 0.156106 0.156352 0.156596 0.156838 0.157082
0.157326 0.157571 0.157813 0.158054 0.158297 0.15854 0.158782 0.159024 0.159264 0.159505
0.159746 0.159987 0.160227 0.160466 0.160705 0.160945 0.161184 0.161423 0.16166 0.161899
0.162137 0.162374 0.162612 0.162848 0.163084 0.163321 0.163557 0.163793 0.164028 0.164263
0.164498 0.164733 0.164967 0.165201 0.165435 0.165668 0.165901 0.166134 0.166167 0.166201
0.166235 0.166269 0.166302 0.166732 0.16716 0.167586 0.168 0.168398 0.169207 0.170017
0.170823 0.171626 0.172423 0.173955 0.17549 0.177023 0.178551 0.180078 0.181587 0.183101
0.184614 0.186126 0.187636 0.190641 0.19365 0.196656 0.199662 0.202687 0.208692 0.214698
0.220704 0.226709 0.232715 0.238716 0.244719 0.250722 0.256726 0.262729 0.268729 0.274732
0.280735 0.286737 0.29274 0.29874 0.304742 0.310745 0.316747 0.322749 0.328749 0.334751
0.340753 0.346755 0.352756 0.358757 0.364758 0.37076 0.376761 0.382763 0.388763 0.394764
0.400766 0.406767 0.412768 0.418768 0.421722 0 7.36659e-05 0.000147336 0.000221012 0.000294692
0.000368376 0.000558952 0.000749561 0.000940203 0.00113088 0.00132159 0.00145703 0.00159248 0.00172796 0.00186345
0.00198321 0.0020417 0.00210018 0.00215868 0.00221717 0.00227567 0.00246658 0.00265753 0.00284852 0.00303955
0.00323061 0.00342171 0.00361284 0.00380402 0.00399524 0.0041865 0.00437779 0.00456913 0.00476051 0.00495194
0.0051434 0.00533491 0.00552647 0.00571806 0.00590971 0.0061014 0.00629313 0.00648492 0.00667675 0.00686863
0.00706056 0.00725254 0.00744457 0.00763666 0.00782879 0.00802098 0.00821322 0.00840552 0.00859787 0.00879028
0.00898274 0.00917527 0.00936785 0.00956049 0.00975319 0.00994596 0.0101388 0.0103317 0.0105246 0.0107176
0.0109107 0.0111039 0.0112971 0.0114904 0.0116837 0.0118772 0.0120707 0.0122643 0.0124579 0.0126516
0.0128454 0.0130393 0.0132333 0.0134273 0.0136215 0.0138157 0.01401 0.0142044 0.0143988 0.0145934
0.014788 0.0149828 0.0151776 0.0153725 0.0155676 0.0157627 0.0159579 0.0161532 0.0163487 0.0165442
0.0167399 0.0169356 0.0171315 0.0173275 0.0175235 0.0177198 0.0179161 0.0181125 0.0183091 0.0185058
0.0187026 0.0188996 0.0190967 0.0192939 0.0194912 0.0196887 0.0198864 0.0200841 0.0202821 0.0204802
0.0206784 0.0208768 0.0210753 0.021274 0.0214729 0.0216719 0.0218712 0.0220705 0.0222701 0.0224699
0.0226698 0.0228699 0.0230702 0.0232707 0.0234715 0.0236724 0.0238735 0.0240748 0.0242764 0.0244782
0.0246802 0.0248824 0.0250849 0.0252876 0.0254906 0.0256938 0.0258972 0.026101 0.026305 0.0265093
0.0267138 0.0269187 0.0271238 0.0273293 0.027535 0.0277411 0.0279475 0.0281542 0.0283613 0.0285687
0.0287765 0.0289846 0.0291931 0.029402 0.0296112 0.0298209 0.0298558 0.0298906 0.0299255 0.0299604
0.0299946 0.0301703 0.0303462 0.0305225 0.0306991 0.030876 0.0310882 0.031301 0.0315143 0.0317281
0.0319424 0.0321572 0.0323726 0.0325886 0.0328052 0.0330223 0.03324 0.0334584 0.0336775 0.0338972
0.0341176 0.0343387 0.0345606 0.0347833 0.0350067 0.035231 0.035456 0.035682 0.0359088 0.0361366
0.0363653 0.036595 0.0368258 0.0370577 0.0372907 0.0375248 0.03776 0.0379965 0.0382343 0.0384734
0.0387139 0.0389558 0.0391993 0.0394445 0.0396913 0.0399397 0.0401898 0.0404418 0.0406958 0.0409518
0.0412099 0.04147 0.0417326 0.0419978 0.0422656 0.042536 0.0428097 0.0430864 0.0433662 0.0436494
0.0439362 0.0442259 0.0445198 0.0448178 0.04512 0.0454277 0.0457376 0.0460521 0.0463712 0.0466949
0.0470288 0.0471875 0.0473474 0.0475085 0.0476706 0.047748 0.0479528 0.0481588 0.0483661 0.0485746
0.0487914 0.0490928 0.0493963 0.0497014 0.0500056 0.050096 0.0502148 0.0503333 0.0504514 0.0505691
0.0506915 0.0508889 0.0510841 0.0512772 0.0514679 0.0515919 0.0517958 0.0519961 0.052193 0.0523863
0.0525911 0.052618 0.0526447 0.0526714 0.052698 0.0527237 0.0529243 0.0531193 0.0533092 0.0534943