# vtk DataFile Version 2.0
tracks
ASCII
DATASET POLYDATA
POINTS 19447 float
-1.001 1e-07 0.0011 -0.99955 9.71115e-08 0.00110002 -0.9981 9.42108e-08 0.00110004 -0.99665 9.12976e-08
0.00110007 -0.9952 8.83721e-08 0.0011001 -0.99375 8.54342e-08 0.00110014 -0.99 7.77876e-08 0.00110024
-0.98625 7.01546e-08 0.00110034 -0.9825 6.25196e-08 0.00110043 -0.97875 5.48204e-08 0.00110054 -0.975
4.69974e-08 0.00110067 -0.97125 3.90417e-08 0.00110083 -0.9675 3.10922e-08 0.00110098 -0.96375 2.31401e-08
0.00110113 -0.96 1.51189e-08 0.00110128 -0.95625 6.96513e-09 0.00110145 -0.95562 5.57211e-09 0.00110148
-0.954989 4.1791e-09 0.0011015 -0.954359 2.78602e-09 0.00110153 -0.953729 1.39286e-09 0.00110156 -0.953098
1.68662e-17 0.00110159 -0.949979 -6.89557e-09 0.00110173 -0.946859 -1.37931e-08 0.00110187 -0.943739 -2.06948e-08
0.00110202 -0.94062 -2.76936e-08 0.00110216 -0.9375 -3.47896e-08 0.00110231 -0.93375 -4.34333e-08 0.00110248
-0.93 -5.20832e-08 0.00110266 -0.92625 -6.07362e-08 0.00110284 -0.9225 -6.9464e-08 0.00110302 -0.91875
-7.83339e-08 0.0011032 -0.915 -8.73394e-08 0.00110339 -0.91125 -9.63551e-08 0.00110357 -0.9075 -1.05374e-07
0.00110376 -0.90375 -1.1447e-07 0.00110395 -0.9 -1.2371e-07 0.00110414 -0.89625 -1.33085e-07 0.00110433
-0.8925 -1.42623e-07 0.00110453 -0.88875 -1.52313e-07 0.00110473 -0.885 -1.62084e-07 0.00110494 -0.88125
-1.71859e-07 0.00110514 -0.8775 -1.81602e-07 0.00110534 -0.87375 -1.91542e-07 0.00110555 -0.87 -2.01643e-07
0.00110577 -0.86625 -2.11829e-07 0.00110598 -0.8625 -2.2202e-07 0.0011062 -0.85875 -2.32167e-07 0.00110642
-0.855 -2.42528e-07 0.00110664 -0.85125 -2.53053e-07 0.00110687 -0.8475 -2.63666e-07 0.0011071 -0.84375
-2.74284e-07 0.00110733 -0.84 -2.84887e-07 0.00110756 -0.83625 -2.9568e-07 0.00110779 -0.8325 -3.06642e-07
0.00110804 -0.82875 -3.17696e-07 0.00110828 -0.825 -3.28754e-07 0.00110853 -0.82125 -3.39742e-07 0.00110877
-0.8175 -3.50979e-07 0.00110902 -0.81375 -3.62386e-07 0.00110928 -0.81 -3.73887e-07 0.00110954 -0.80625
-3.85393e-07 0.0011098 -0.8025 -3.96812e-07 0.00111007 -0.79875 -4.085e-07 0.00111033 -0.795 -4.2036e-07
0.00111061 -0.79125 -4.32315e-07 0.00111089 -0.7875 -4.44277e-07 0.00111117 -0.78375 -4.56215e-07 0.00111145
-0.78 -4.68365e-07 0.00111174 -0.77625 -4.80693e-07 0.00111203 -0.7725 -4.9312e-07 0.00111233 -0.76875
-5.05553e-07 0.00111263 -0.765 -5.17962e-07 0.00111293 -0.76125 -5.30594e-07 0.00111324 -0.7575 -5.43412e-07
0.00111356 -0.75375 -5.56334e-07 0.00111388 -0.75 -5.69263e-07 0.0011142 -0.74625 -5.82041e-07 0.00111452
-0.7425 -5.95174e-07 0.00111485 -0.73875 -6.08494e-07 0.00111519 -0.735 -6.2192e-07 0.00111553 -0.73125
-6.35354e-07 0.00111588 -0.7275 -6.48609e-07 0.00111622 -0.72375 -6.62245e-07 0.00111658 -0.72 -6.76064e-07
0.00111694 -0.71625 -6.89987e-07 0.00111731 -0.7125 -7.03919e-07 0.00111768 -0.70875 -7.1764e-07 0.00111805
-0.705 -7.31777e-07 0.00111843 -0.70125 -7.46096e-07 0.00111882 -0.6975 -7.6052e-07 0.00111922 -0.69375
-7.74954e-07 0.00111962 -0.69 -7.89359e-07 0.00112002 -0.68625 -8.04e-07 0.00112043 -0.6825 -8.18821e-07
0.00112085 -0.67875 -8.33748e-07 0.00112127 -0.675 -8.48686e-07 0.0011217 -0.67125 -8.63596e-07 0.00112213
-0.6675 -8.78749e-07 0.00112257 -0.66375 -8.94086e-07 0.00112302 -0.66 -9.09532e-07 0.00112348 -0.65625
-9.2499e-07 0.00112394 -0.6525 -9.40108e-07 0.0011244 -0.64875 -9.55785e-07 0.00112487 -0.645 -9.71645e-07
0.00112536 -0.64125 -9.87614e-07 0.00112585 -0.6375 -1.0036e-06 0.00112635 -0.63375 -1.01955e-06 0.00112684
-0.63 -1.03576e-06 0.00112735 -0.62625 -1.05214e-06 0.00112788 -0.6225 -1.06863e-06 0.00112841 -0.61875
-1.08514e-06 0.00112894 -0.615 -1.10162e-06 0.00112947 -0.61125 -1.11836e-06 0.00113002 -0.6075 -1.13528e-06
0.00113058 -0.60375 -1.15231e-06 0.00113115 -0.6 -1.16936e-06 0.00113172 -0.59625 -1.18638e-06 0.00113229
-0.5925 -1.20351e-06 0.00113286 -0.58875 -1.22066e-06 0.00113344 -0.585 -1.23791e-06 0.00113402 -0.58125
-1.25535e-06 0.00113462 -0.5775 -1.27232e-06 0.00113523 -0.57375 -1.29002e-06 0.00113585 -0.57 -1.30773e-06
0.00113646 -0.56625 -1.32556e-06 0.00113709 -0.5625 -1.34357e-06 0.00113773 -0.55875 -1.361e-06 0.00113839
-0.555 -1.37927e-06 0.00113905 -0.55125 -1.39757e-06 0.00113971 -0.5475 -1.41599e-06 0.00114038 -0.54375
-1.43459e-06 0.00114107 -0.54 -1.45336e-06 0.00114178 -0.53625 -1.47225e-06 0.00114249 -0.5325 -1.49117e-06
0.0011432 -0.52875 -1.51022e-06 0.00114392 -0.525 -1.52945e-06 0.00114466 -0.52125 -1.54784e-06 0.00114542
-0.5175 -1.56739e-06 0.00114618 -0.51375 -1.58697e-06 0.00114693 -0.51 -1.60668e-06 0.00114771 -0.50625
-1.62658e-06 0.0011485 -0.5025 -1.64546e-06 0.00114931 -0.49875 -1.6657e-06 0.00115011 -0.495 -1.68597e-06
0.00115092 -0.49125 -1.70637e-06 0.00115175 -0.4875 -1.72696e-06 0.00115259 -0.48375 -1.74776e-06 0.00115345
-0.48 -1.76873e-06 0.00115431 -0.47625 -1.78973e-06 0.00115517 -0.4725 -1.81088e-06 0.00115604 -0.46875
-1.83222e-06 0.00115693 -0.465 -1.8538e-06 0.00115784 -0.46125 -1.87556e-06 0.00115875 -0.4575 -1.89736e-06
0.00115966 -0.45375 -1.91932e-06 0.00116058 -0.45 -1.94149e-06 0.00116152 -0.44625 -1.96394e-06 0.00116248
-0.4425 -1.9866e-06 0.00116343 -0.43875 -2.00929e-06 0.00116438 -0.435 -2.03215e-06 0.00116535 -0.43125
-2.05524e-06 0.00116632 -0.4275 -2.07624e-06 0.00116731 -0.42375 -2.09987e-06 0.0011683 -0.42 -2.12354e-06
0.00116929 -0.41625 -2.14738e-06 0.00117028 -0.4125 -2.17145e-06 0.00117129 -0.40875 -2.19302e-06 0.00117229
-0.405 -2.21769e-06 0.0011733 -0.40125 -2.24241e-06 0.00117431 -0.3975 -2.26732e-06 0.00117532 -0.39375
-2.29246e-06 0.00117633 -0.39 -2.31802e-06 0.00117734 -0.38625 -2.34385e-06 0.00117834 -0.3825 -2.36974e-06
0.00117935 -0.37875 -2.39583e-06 0.00118035 -0.375 -2.42217e-06 0.00118133 -0.37125 -2.449e-06 0.00118229
-0.3675 -2.47614e-06 0.00118326 -0.36375 -2.50334e-06 0.00118422 -0.36 -2.53075e-06 0.00118516 -0.35625
-2.55842e-06 0.00118607 -0.3525 -2.58178e-06 0.00118693 -0.34875 -2.61034e-06 0.0011878 -0.345 -2.63899e-06
0.00118867 -0.34125 -2.66784e-06 0.00118949 -0.3375 -2.69697e-06 0.00119025 -0.33375 -2.72675e-06 0.00119095
-0.33 -2.75692e-06 0.00119164 -0.32625 -2.78716e-06 0.00119233 -0.3225 -2.81763e-06 0.00119295 -0.31875
-2.84836e-06 0.00119347 -0.315 -2.87986e-06 0.00119388 -0.31125 -2.91178e-06 0.00119429 -0.3075 -2.94378e-06
0.00119471 -0.30375 -2.97602e-06 0.00119501 -0.3 -3.00854e-06 0.00119515 -0.29625 -3.03351e-06 0.00119513
-0.2925 -3.06754e-06 0.00119488 -0.28875 -3.10182e-06 0.00119439 -0.285 -3.13632e-06 0.00119373 -0.28125
-3.1709e-06 0.00119308 -0.2775 -3.19619e-06 0.00119242 -0.27375 -3.23219e-06 0.00119143 -0.27 -3.26837e-06
0.0011901 -0.26625 -3.30471e-06 0.00118854 -0.2625 -3.34113e-06 0.00118697 -0.25875 -3.36644e-06 0.00118541
-0.255 -3.40441e-06 0.00118336 -0.25125 -3.44249e-06 0.00118084 -0.2475 -3.48067e-06 0.00117798 -0.24375
-3.51891e-06 0.00117512 -0.24 -3.55843e-06 0.00117228 -0.23625 -3.59838e-06 0.0011688 -0.2325 -3.63831e-06
0.00116469 -0.22875 -3.67824e-06 0.00116017 -0.225 -3.71823e-06 0.00115566 -0.22125 -3.74239e-06 0.00115118
-0.2175 -3.78388e-06 0.00114584 -0.21375 -3.8252e-06 0.00113963 -0.21 -3.86642e-06 0.00113292 -0.20625
-3.90766e-06 0.00112626 -0.2025 -3.93043e-06 0.00111964 -0.19875 -3.97404e-06 0.00111181 -0.195 -4.01726e-06
0.00110279 -0.19125 -4.06026e-06 0.00109318 -0.1875 -4.10326e-06 0.00108366 -0.18375 -4.14757e-06 0.00107424
-0.18 -4.19127e-06 0.00106329 -0.17625 -4.23404e-06 0.00105084 -0.1725 -4.27639e-06 0.00103788 -0.16875
-4.3187e-06 0.0010251 -0.165 -4.36296e-06 0.00101249 -0.16125 -4.40596e-06 0.000998102 -0.1575 -4.44754e-06
0.000981973 -0.15375 -4.4887e-06 0.000965606 -0.15 -4.52982e-06 0.000949542 -0.14625 -4.57308e-06 0.00093377
-0.1425 -4.61346e-06 0.000916003 -0.13875 -4.65104e-06 0.000896302 -0.135 -4.68839e-06 0.000876864 -0.13125
-4.72577e-06 0.000857885 -0.1275 -4.73249e-06 0.000839345 -0.12375 -4.76913e-06 0.000818745 -0.12 -4.80377e-06
0.000796488 -0.11625 -4.83851e-06 0.000774874 -0.1125 -4.87336e-06 0.000753882 -0.10875 -4.87568e-06 0.000733484
-0.105 -4.90723e-06 0.000711068 -0.10125 -4.93604e-06 0.000687692 -0.0975 -4.96517e-06 0.00066511 -0.0937499
-4.99461e-06 0.000643293 -0.0899999 -5.0259e-06 0.000622202 -0.0862499 -5.05533e-06 0.000599585 -0.0824999 -5.08463e-06
0.000576907 -0.0787499 -5.1143e-06 0.000555091 -0.0749999 -5.14433e-06 0.000534105 -0.0712499 -5.17576e-06 0.000513901
-0.0674999 -5.21053e-06 0.000493624 -0.0637499 -5.2462e-06 0.000473996 -0.0599999 -5.28206e-06 0.000455135 -0.0562499
-5.31812e-06 0.000437013 -0.0524999 -5.31953e-06 0.000419587 -0.0487498 -5.35487e-06 0.000404512 -0.0449998 -5.39039e-06
0.000389962 -0.0412498 -5.42609e-06 0.000375919 -0.0374998 -5.46196e-06 0.000362367 -0.0337498 -5.49809e-06 0.000349279
-0.0299998 -5.5329e-06 0.000340653 -0.0262498 -5.56788e-06 0.00033223 -0.0224998 -5.60303e-06 0.000324009 -0.0187499
-5.63836e-06 0.000315983 -0.0149999 -5.67316e-06 0.000308146 -0.0112499 -5.71416e-06 0.000304721 -0.0074999 -5.75528e-06
0.000301332 -0.00374991 -5.79652e-06 0.000297979 6.11919e-08 -5.83789e-06 0.000294662 0.00375005 -5.8482e-06 0.000291383
0.00750005 -5.88521e-06 0.000288148 0.01125 -5.92229e-06 0.000284947 0.015 -5.95945e-06 0.000281781 0.01875
-5.99668e-06 0.000278649 0.0225 -6.01657e-06 0.000277613 0.02625 -6.06079e-06 0.000276586 0.03 -6.10512e-06
0.000275562 0.03375 -6.14957e-06 0.000274541 0.0375 -6.19413e-06 0.000273525 0.04125 -6.22006e-06 0.000273038
0.045 -6.26749e-06 0.000272554 0.04875 -6.31504e-06 0.000272071 0.0525 -6.36271e-06 0.000271589 0.05625
-6.4105e-06 0.000271108 0.06 -6.4654e-06 0.00027091 0.06375 -6.51786e-06 0.000270715 0.0675 -6.57044e-06
0.000270519 0.07125 -6.62316e-06 0.000270324 0.075 -6.67602e-06 0.000270129 0.07875 -6.7171e-06 0.000270082
0.0825 -6.77586e-06 0.000270037 0.08625 -6.83476e-06 0.000269992 0.09 -6.89381e-06 0.000269947 0.09375
-6.95301e-06 0.000269902 0.0975 -7.00139e-06 0.000269908 0.10125 -7.06716e-06 0.000269915 0.105 -7.13309e-06
0.000269922 0.10875 -7.19919e-06 0.000269929 0.1125 -7.26545e-06 0.000269936 0.11625 -7.3426e-06 0.000269956
[...]
POINT_DATA 19447
FIELD attributes 3
age 1 19447 float
0 7.30157e-05 0.000146035 0.000219058 0.000292085 0.000365115 0.000553997 0.000742878 0.00093176 0.00112066 0.00130959
0.00149855 0.00168751 0.00187648 0.00206546 0.00225448 0.00228625 0.00231803 0.00234981 0.00238159 0.00241336
0.00257063 0.00272791 0.00288518 0.00304248 0.00319981 0.00338895 0.00357809 0.00376724 0.0039564 0.00414561
0.00433485 0.0045241 0.00471334 0.00490261 0.00509192 0.00528127 0.00547067 0.00566011 0.00584957 0.00603904
0.00622851 0.00641802 0.00660759 0.00679718 0.00698677 0.00717636 0.007366 0.00755569 0.00774542 0.00793514
0.00812486 0.00831464 0.00850448 0.00869434 0.00888421 0.00907407 0.009264 0.00945398 0.009644 0.00983402
0.010024 0.0102141 0.0104043 0.0105945 0.0107846 0.0109748 0.0111651 0.0113554 0.0115458 0.0117361
0.0119265 0.0121169 0.0123074 0.012498 0.0126886 0.0128791 0.0130698 0.0132605 0.0134512 0.013642
0.0138328 0.0140236 0.0142146 0.0144056 0.0145965 0.0147875 0.0149786 0.0151698 0.0153611 0.0155523
0.0157435 0.0159349 0.0161263 0.0163178 0.0165093 0.0167008 0.0168925 0.0170842 0.017276 0.0174678
0.0176596 0.0178515 0.0180436 0.0182357 0.0184278 0.0186199 0.0188122 0.0190045 0.019197 0.0193895
0.0195819 0.0197745 0.0199673 0.0201601 0.020353 0.0205458 0.0207387 0.0209315 0.0211245 0.0213176
0.0215109 0.0217041 0.0218974 0.0220908 0.0222843 0.0224781 0.0226718 0.0228655 0.0230594 0.0232534
0.0234476 0.0236419 0.0238361 0.0240305 0.024225 0.0244198 0.0246146 0.0248094 0.0250043 0.0251995
0.0253949 0.0255903 0.0257857 0.0259812 0.0261771 0.0263731 0.0265692 0.0267653 0.0269615 0.0271581
0.0273549 0.0275517 0.0277485 0.0279456 0.0281429 0.0283405 0.0285382 0.0287359 0.0289337 0.0291319
0.0293305 0.029529 0.0297276 0.0299264 0.0301256 0.0303252 0.0305247 0.0307243 0.0309242 0.0311244
0.0313251 0.0315258 0.0317265 0.0319275 0.0321289 0.0323308 0.0325327 0.0327346 0.0329368 0.0331396
0.0333428 0.033546 0.0337492 0.0339529 0.034157 0.0343616 0.0345663 0.034771 0.034976 0.0351817
0.0353879 0.035594 0.0358003 0.0360069 0.0362141 0.0364219 0.0366303 0.0368393 0.0370487 0.0372581
0.0374675 0.0376775 0.037888 0.038099 0.03831 0.0385209 0.0387324 0.0389444 0.0391568 0.0393691
0.0395814 0.0397941 0.0400072 0.0402206 0.0404339 0.0406471 0.0408606 0.0410743 0.0412882 0.0415019
0.0417154 0.041929 0.0421425 0.0423559 0.0425691 0.042782 0.0429945 0.0432066 0.0434182 0.0436296
0.0438406 0.0440507 0.0442599 0.0444685 0.0446768 0.0448846 0.045091 0.0452959 0.0455002 0.0457042
0.0459077 0.0461091 0.0463086 0.0465077 0.0467065 0.046905 0.0471006 0.0472945 0.0474881 0.0476815
0.0478747 0.0480646 0.048253 0.0484415 0.0486299 0.0488183 0.049003 0.0491872 0.0493716 0.049556
0.0497406 0.0499218 0.0501033 0.0502849 0.0504667 0.0506488 0.0508287 0.0510089 0.0511891 0.0513696
0.0515503 0.0517302 0.0519102 0.0520902 0.0522704 0.0524506 0.052631 0.0528113 0.0529918 0.0531723
0.053353 0.0535337 0.0537143 0.053895 0.0540758 0.0542568 0.0544379 0.054619 0.0548 0.0549811
0.0551625 0.055344 0.0555254 0.0557068 0.0558882 0.05607 0.0562517 0.0564334 0.0566152 0.0567969
0.056979 0.057161 0.057343 0.057525 0.0577071 0.0578894 0.0580717 0.058254 0.0584363 0.0586186
0.0588013 0.0589839 0.0591665 0.0593491 0.0595317 0.0597146 0.0598975 0.0600804 0.0602633 0.0604462
0.0606294 0.0608126 0.0609958 0.061179 0.0613622 0.0615458 0.0617293 0.0619128 0.0620963 0.0622798
0.0624636 0.0626474 0.0628312 0.063015 0.0631988 0.0633829 0.063567 0.0637511 0.0639352 0.0641193
0.0643036 0.064488 0.0646723 0.0648566 0.065041 0.0652256 0.0654102 0.0655947 0.0657793 0.0659639
0.0661487 0.0663335 0.0665183 0.0667031 0.0668879 0.0670729 0.067258 0.0674432 0.0676283 0.0678135
0.0679987 0.068184 0.0683693 0.0685546 0.0687399 0.0689252 0.0691107 0.0692961 0.0694816 0.069667
0.0698525 0.070038 0.0702236 0.0704092 0.0705947 0.0707803 0.070966 0.0711516 0.0713373 0.0715229
0.0717086 0.0718943 0.0720801 0.0722658 0.0724515 0.0726373 0.0728231 0.0730089 0.0731947 0.0733805
0.0735663 0.0737521 0.073938 0.0741238 0.0743097 0.0744955 0.0746814 0.0748672 0.0750531 0.0752389
0.0754248 0.0756107 0.0757965 0.0759824 0.0761682 0.0763541 0.0765399 0.0767258 0.0769116 0.0770974
0.0772833 0.0774691 0.0776549 0.0778407 0.0780265 0.0782123 0.078398 0.0785838 0.0787695 0.0789553
0.0791411 0.0793268 0.0795125 0.0796982 0.0798839 0.0800696 0.0802553 0.080441 0.0806267 0.0808124
0.0809981 0.0811838 0.0813695 0.0815552 0.0817409 0.0819266 0.0821123 0.082298 0.0824837 0.0826694
0.0828552 0.0830409 0.0832266 0.0834124 0.0835981 0.0837839 0.0839697 0.0841555 0.0843413 0.0845271
0.084713 0.0848988 0.0850847 0.0852705 0.0854564 0.0856423 0.0858283 0.0860142 0.0862001 0.086386
0.086572 0.086758 0.086944 0.08713 0.087316 0.0875021 0.0876882 0.0878742 0.0880603 0.0882464
0.0884325 0.0886186 0.0888048 0.0889909 0.089177 0.0893632 0.0895494 0.0897356 0.0899218 0.090108
0.0902942 0.0904804 0.0906667 0.0908529 0.0910392 0.0912255 0.0914118 0.0915981 0.0917844 0.0919707
0.092157 0.0923433 0.0925297 0.092716 0.0929023 0.0929569 0.0930114 0.0930659 0.0931205 0.0931748
0.0933067 0.0934386 0.0935705 0.0937024 0.0938342 0.0940207 0.0942071 0.0943935 0.0945799 0.0947663
0.0949528 0.0951392 0.0953257 0.0955121 0.0956986 0.0958851 0.0960715 0.096258 0.0964445 0.096631
0.0968175 0.0970041 0.0971907 0.0973773 0.0975639 0.0977504 0.0979371 0.0981237 0.0983104 0.098497
0.0986837 0.0988704 0.0990571 0.0992438 0.0994305 0.0996173 0.099804 0.0999907 0.100177 0.100364
0.100551 0.100738 0.100924 0.101111 0.101298 0.101485 0.101672 0.101858 0.102045 0.102232
0.102419 0.102606 0.102793 0.10298 0.103167 0.103354 0.103541 0.103728 0.103915 0.104103
0.10429 0.104477 0.104665 0.104853 0.10504 0.105228 0.105416 0.105604 0.105792 0.10598
0.106168 0.106356 0.106545 0.106733 0.106922 0.10711 0.107299 0.107489 0.107678 0.107867
0.108056 0.108245 0.108435 0.108624 0.108814 0.109003 0.109193 0.109383 0.109573 0.109763
0.109953 0.110143 0.110334 0.110524 0.110714 0.110905 0.111095 0.111286 0.111476 0.111667
0.111857 0.112048 0.112239 0.112429 0.11262 0.11281 0.113001 0.113192 0.113383 0.113573
0.113764 0.113955 0.114146 0.114336 0.114527 0.114718 0.114909 0.1151 0.115291 0.115482
0.115672 0.115863 0.116054 0.116245 0.116436 0.116627 0.116817 0.117008 0.117199 0.11739
0.117581 0.117772 0.117963 0.118153 0.118344 0.118535 0.118726 0.118917 0.119107 0.119298
0.119489 0.11968 0.11987 0.120061 0.120252 0.120443 0.120633 0.120824 0.121015 0.121206
0.121396 0.121587 0.121778 0.121969 0.122159 0.12235 0.122541 0.122731 0.122922 0.123113
0.123303 0.123494 0.123685 0.123875 0.124066 0.124257 0.124447 0.124638 0.124829 0.125019
0.12521 0.1254 0.125591 0.125782 0.125972 0.126163 0.126353 0.126544 0.126735 0.126925
0.127115 0.127306 0.127497 0.127687 0.127878 0.128068 0.128259 0.12845 0.12864 0.128831
0.129021 0.129212 0.129402 0.129593 0.129783 0.129974 0.130164 0.130355 0.130545 0.130736
0.130926 0.131117 0.131307 0.131498 0.131688 0.131878 0.132069 0.132259 0.13245 0.13264
0.13283 0.13302 0.133211 0.133401 0.133592 0.133782 0.133972 0.134162 0.134353 0.134543
0.134733 0.134923 0.135114 0.135304 0.135494 0.135684 0.135874 0.136065 0.136255 0.136445
0.136635 0.136825 0.137015 0.137205 0.137396 0.137585 0.137775 0.137966 0.138156 0.138346
0.138535 0.138726 0.138916 0.139106 0.139296 0.139485 0.139676 0.139866 0.140056 0.140246
0.140435 0.140625 0.140815 0.141006 0.141196 0.141385 0.141575 0.141765 0.141955 0.142145
0.142334 0.142524 0.142714 0.142904 0.143094 0.143283 0.143473 0.143663 0.143853 0.144043
0.144232 0.144422 0.144612 0.144802 0.144992 0.14518 0.14537 0.14556 0.14575 0.145939
0.146128 0.146318 0.146507 0.146697 0.146887 0.147075 0.147265 0.147454 0.147644 0.147833
0.148022 0.148211 0.148401 0.14859 0.148779 0.148968 0.149157 0.149346 0.149536 0.149725
0.149913 0.150102 0.150292 0.150481 0.15067 0.150858 0.151047 0.151236 0.151425 0.151614
0.151991 0.152368 0.152745 0.153122 0.153498 0.15425 0.155001 0.155752 0.156503 0.157255
0.158755 0.160256 0.161757 0.163258 0.164758 0.166259 0.167759 0.169259 0.17076 0.17226
0.17526 0.178261 0.181261 0.184261 0.187261 0.193261 0.199262 0.205262 0.211262 0.217262
0.223262 0.229262 0.235262 0.241262 0.247262 0.253262 0.259262 0.265262 0.271262 0.277263
0.283263 0.289263 0.295263 0.301263 0.307263 0.313263 0.319263 0.325263 0.331263 0.337263
0.343263 0.349263 0.355263 0.361263 0.367263 0.373263 0.379263 0.385263 0.391263 0.397263
0.403263 0.40333 0 7.36894e-05 0.000147383 0.00022108 0.000294781 0.000368486 0.000509355 0.000650243
0.000791148 0.000932073 0.00106427 0.00111581 0.00116736 0.0012189 0.00127045 0.001322 0.0015128 0.00170364
0.00189451 0.00208541 0.00227635 0.00246733 0.00265834 0.00284939 0.00304048 0.00323161 0.00342278 0.00361398
0.00380523 0.00399652 0.00418784 0.00437921 0.00457062 0.00476208 0.00495358 0.00514512 0.0053367 0.00552834
0.00572002 0.00591174 0.00610351 0.00629533 0.0064872 0.00667912 0.00687109 0.00706311 0.00725518 0.0074473
0.00763948 0.00783171 0.00802399 0.00821633 0.00840872 0.00860118 0.00879369 0.00898626 0.00917889 0.00937157
0.00956433 0.00975714 0.00995002 0.010143 0.010336 0.010529 0.0107222 0.0109154 0.0111087 0.011302
0.0114954 0.0116889 0.0118825 0.0120761 0.0122698 0.0124636 0.0126575 0.0128515 0.0130455 0.0132396
0.0134338 0.0136281 0.0138225 0.0140169 0.0142115 0.0144061 0.0146008 0.0147956 0.0149906 0.0151856
0.0153807 0.0155759 0.0157712 0.0159666 0.0161622 0.0163578 0.0165535 0.0167494 0.0169453 0.0171414
0.0173376 0.0175339 0.0177304 0.0179269 0.0181236 0.0183204 0.0185173 0.0187144 0.0189116 0.0191089
0.0193064 0.019504 0.0197018 0.0198997 0.0200977 0.020296 0.0204943 0.0206928 0.0208915 0.0210904
0.0212894 0.0214886 0.0216879 0.0218874 0.0220872 0.022287 0.0224871 0.0226874 0.0228879 0.0230885
0.0232894 0.0234905 0.0236917 0.0238932 0.0240949 0.0242969 0.024499 0.0247014 0.0249041 0.0251069
0.02531 0.0255134 0.025717 0.0259209 0.0261251 0.0263295 0.0265342 0.0267392 0.0269445 0.0271501
0.0273559 0.0275621 0.0277686 0.0279755 0.0281826 0.0283901 0.028598 0.0288062 0.0290147 0.0292236
0.029433 0.0296427 0.0298527 0.0300632 0.0302741 0.0304854 0.0306972 0.0309094 0.031122 0.0313351
0.0315487 0.0317628 0.0319774 0.0321924 0.032408 0.0326241 0.0328408 0.033058 0.0332758 0.0334942
0.0337132 0.0339328 0.034153 0.0343738 0.0345954 0.0348176 0.0350405 0.0352641 0.0354884 0.0357134
0.0359393 0.0361659 0.0363933 0.0366214 0.0368505 0.0370805 0.0373113 0.037543 0.0377756 0.0380091
0.0382436 0.0384791 0.0387156 0.0389531 0.0391917 0.0394315 0.0396723 0.0399142 0.0401572 0.0404014
0.0406467 0.0408932 0.041141 0.04139 0.0416404 0.041892 0.0421449 0.0423992 0.0426547 0.0429113
0.0431692 0.0434283 0.0436891 0.0439511 0.0442143 0.0444786 0.044744 0.0450113 0.0452791 0.0455475
0.0458164 0.0460858 0.0463577 0.0464849 0.0466121 0.0467393 0.0468663 0.0469462 0.0471001 0.0472538
0.0474073 0.0475607 0.0477151 0.0479859 0.0482549 0.0485222 0.0487874 0.0490558 0.0492018 0.0493465
0.0494902 0.0496326 0.0497426 0.0498632 0.049983 0.050102 0.0502203 0.0503387 0.0505861 0.0508284
0.0510657 0.0512982 0.0515274 0.0515427 0.0515579 0.0515732 0.0515884 0.0516036 0.0518104 0.0520126
0.0522104 0.0524039 0.0525914 0.0527026 0.0528121 0.0529199 0.0530264 0.05316 0.0532346 0.0533085
0.0533817 0.0534543 0.0535258 0.0537001 0.0538709 0.0540382 0.0542022 0.0543598 0.054498 0.0546347
0.0547699 0.0549036 0.0551259 0.0551402 0.0551545 0.0551688 0.0551831 0.0551993 0.0553312 0.0554625
0.0555932 0.0557234 0.0558524 0.0559953 0.0561383 0.0562815 0.0564248 0.0565681 0.0567114 0.056855
0.0569989 0.0571433 0.0572879 0.057433 0.0575784 0.0577241 0.0578703 0.0580168 0.0581636 0.0583107
0.0584581 0.0586059 0.058754 0.0589024 0.0590511 0.0592002 0.0593495 0.0594992 0.0596491 0.0597994
0.0599499 0.0601007 0.0602519 0.0604033 0.0605551 0.0607071 0.0608595 0.0610122 0.0611652 0.0613185
0.0614721 0.0616261 0.0617804 0.061935 0.0620899 0.0622452 0.0624009 0.0625569 0.0627132 0.0628699
0.0630269 0.0631843 0.063342 0.0635001 0.0636585 0.0638172 0.0639764 0.0641358 0.0642956 0.0644558
0.0646162 0.064777 0.0649382 0.0650997 0.0652615 0.0654237 0.0655861 0.0657489 0.065912 0.0660754
0.0662391 0.0664031 0.0665674 0.066732 0.0668969 0.0670621 0.0672276 0.0673933 0.0675593 0.0677256
0.0678921 0.0680588 0.0682259 0.0683932 0.0685607 0.0687284 0.0688964 0.0690646 0.0692331 0.0694017
0.0695706 0.0697397 0.0699089 0.0700784 0.0702481 0.0704179 0.070588 0.0707582 0.0709286 0.0710992
0.0712699 0.0714408 0.0716119 0.0717831 0.0719545 0.072126 0.0722976 0.0724694 0.0726414 0.0728134
0.0729856 0.0731579 0.0733303 0.0735028 0.0736755 0.0738482 0.074021 0.0741939 0.074367 0.07454
0.0747132 0.0748864 0.0750597 0.075233 0.0754064 0.0755799 0.0757534 0.0759269 0.0761005 0.076274
0.0764476 0.0766212 0.0767947 0.0769684 0.0771419 0.0773155 0.0774891 0.0776626 0.0778361 0.0780096
0.078183 0.0783564 0.0785297 0.078703 0.0788763 0.0790495 0.0792227 0.0793958 0.0795688 0.0797418
0.0799147 0.0800876 0.0802604 0.0804332 0.080606 0.0807787 0.0809515 0.0811242 0.0812969 0.0814695
0.0816422 0.0818149 0.0819876 0.0821604 0.0823332 0.082506 0.0826789 0.0828518 0.0830248 0.0831979
0.083371 0.0835442 0.0837175 0.0838909 0.0840644 0.084238 0.0844117 0.0845855 0.0847594 0.0849334
0.0851074 0.0852816 0.0854559 0.0856304 0.0858049 0.0859796 0.0861543 0.0863292 0.0865042 0.0866793
0.0868544 0.0870297 0.0872052 0.0873807 0.0875564 0.0877321 0.087908 0.088084 0.0882601 0.0884362
0.0886125 0.0887889 0.0889654 0.089142 0.0893187 0.0894955 0.0896724 0.0898494 0.0900265 0.0902037
0.0903809 0.0905583 0.0907357 0.0909133 0.0910909 0.0912686 0.0914465 0.0916243 0.091724 0.0918237
0.0919234 0.0920231 0.0921237 0.0922019 0.0922802 0.0923585 0.0924367 0.092515 0.0926934 0.0928719
0.0930504 0.093229 0.0934077 0.0935864 0.0937652 0.0939441 0.0941231 0.0943021 0.0944812 0.0946604
0.0948397 0.0950191 0.0951985 0.0953781 0.0955577 0.0957373 0.0959171 0.0960969 0.0962768 0.0964569
0.0966371 0.0968173 0.0969977 0.0971782 0.0973588 0.0975396 0.0977205 0.0979015 0.0980832 0.0982651
0.0984471 0.0986293 0.0988115 0.0989931 0.0991747 0.0993563 0.099538 0.0997197 0.0999018 0.100084
0.100266 0.100448 0.10063 0.100812 0.100994 0.101177 0.101359 0.101542 0.101725 0.101908
0.102091 0.102275 0.102459 0.102644 0.102828 0.103014 0.103199 0.103386 0.103573 0.103761
0.10395 0.104139 0.10433 0.104521 0.104713 0.104905 0.105099 0.105294 0.105491 0.105688
0.105887 0.106088 0.106289 0.106492 0.106696 0.106902 0.107108 0.107317 0.107527 0.107739
0.107953 0.108169 0.108386 0.108605 0.108825 0.109047 0.10927 0.109496 0.109724 0.109953
0.110184 0.110417 0.110652 0.110889 0.111127 0.111366 0.111608 0.111851 0.112096 0.112343
0.112592 0.112841 0.113093 0.113346 0.113601 0.113856 0.114114 0.114372 0.114633 0.114894
0.115156 0.11542 0.115685 0.115951 0.116218 0.116486 0.116756 0.117026 0.117297 0.117568
0.117841 0.118114 0.118388 0.118663 0.118938 0.119215 0.119491 0.119769 0.120046 0.120324
0.120603 0.120881 0.121161 0.12144 0.12172 0.122 0.122281 0.122562 0.122842 0.123123
0.123405 0.123686 0.123968 0.124249 0.124531 0.124812 0.125094 0.125376 0.125543 0.125709
0.125876 0.126043 0.126203 0.12632 0.126436 0.126552 0.126668 0.126784 0.127065 0.127347
0.127628 0.127909 0.12819 0.128471 0.128752 0.129032 0.129313 0.129593 0.129872 0.130152
0.130432 0.130711 0.13099 0.131268 0.131547 0.131825 0.132104 0.132382 0.132658 0.132935
0.133212 0.133489 0.133765 0.13404 0.134317 0.134593 0.134869 0.135144 0.135417 0.135692
0.135967 0.136241 0.136515 0.136787 0.137061 0.137335 0.137608 0.137881 0.138152 0.138424
0.138696 0.138968 0.13924 0.139509 0.139779 0.14005 0.14032 0.140589 0.140857 0.141126
0.141394 0.141662 0.14193 0.142055 0.142181 0.142306 0.142431 0.14256 0.142701 0.142841
0.142982 0.143122 0.143262 0.143528 0.143793 0.144058 0.144323 0.144587 0.14485 0.145114
0.145378 0.145641 0.145904 0.146165 0.146428 0.14669 0.146952 0.147213 0.147472 0.147733
0.147994 0.148255 0.148514 0.148771 0.149029 0.149289 0.149549 0.149806 0.150061 0.150318
0.150577 0.150835 0.151091 0.151344 0.151599 0.151856 0.152113 0.152367 0.152619 0.152872
0.153128 0.153383 0.153635 0.153886 0.154138 0.154392 0.154646 0.154897 0.155146 0.155397
0.15565 0.155902 0.156152 0.1564 0.15665 0.156901 0.157152 0.157401 0.157648 0.157897
0.158146 0.158395 0.158643 0.158889 0.159137 0.159385 0.159633 0.15988 0.160125 0.160372
0.160619 0.160865 0.161111 0.161356 0.161601 0.161847 0.162092 0.162337 0.16258 0.162825
0.163069 0.163313 0.163556 0.163799 0.164042 0.164285 0.164527 0.16477 0.164883 0.164997
0.165111 0.165225 0.165334 0.165462 0.165591 0.16572 0.165848 0.165977 0.166218 0.166459
0.1667 0.16694 0.16718 0.167195 0.16721 0.167225 0.16724 0.167255 0.167719 0.168181
0.168642 0.1691 0.169526 0.170344 0.171167 0.17199 0.172809 0.173625 0.175165 0.17671
0.178251 0.179788 0.181321 0.182832 0.18435 0.185867 0.187382 0.188896 0.191908 0.194923
0.197936 0.200948 0.203958 0.209964 0.215972 0.221979 0.227985 0.233992 0.239993 0.245997
0.252001 0.258005 0.264009 0.270009 0.276013 0.282016 0.288019 0.294022 0.300023 0.306025
0.312028 0.318031 0.324033 0.330034 0.336036 0.342038 0.34804 0.354042 0.360043 0.366045
0.372047 0.378048 0.38405 0.39005 0.396052 0.402054 0.408055 0.414057 0.420057 0.423909
0 7.36653e-05 0.000147335 0.00022101 0.000294689 0.000368373 0.000510089 0.000651824 0.000793576 0.000935347
0.00106759 0.00111839 0.00116919 0.00121999 0.0012708 0.00132161 0.00151235 0.00170312 0.00189393 0.00208477
0.00227565 0.00246656 0.00265751 0.00284849 0.00303952 0.00323058 0.00342167 0.00361281 0.00380398 0.0039952
0.00418646 0.00437775 0.00456909 0.00476047 0.00495189 0.00514335 0.00533486 0.00552641 0.00571801 0.00590965
0.00610134 0.00629307 0.00648486 0.00667669 0.00686857 0.0070605 0.00725247 0.0074445 0.00763658 0.00782872
0.0080209 0.00821314 0.00840543 0.00859779 0.00879019 0.00898266 0.00917517 0.00936775 0.00956039 0.00975309
0.00994586 0.0101387 0.0103316 0.0105245 0.0107175 0.0109106 0.0111038 0.011297 0.0114903 0.0116836
0.0118771 0.0120706 0.0122641 0.0124578 0.0126515 0.0128453 0.0130392 0.0132332 0.0134272 0.0136213
0.0138155 0.0140098 0.0142042 0.0143987 0.0145932 0.0147879 0.0149826 0.0151774 0.0153724 0.0155674
0.0157625 0.0159577 0.0161531 0.0163485 0.016544 0.0167397 0.0169354 0.0171313 0.0173273 0.0175233
0.0177196 0.0179159 0.0181123 0.0183089 0.0185056 0.0187024 0.0188993 0.0190964 0.0192936 0.019491
0.0196885 0.0198861 0.0200839 0.0202818 0.0204799 0.0206781 0.0208765 0.0210751 0.0212738 0.0214726
0.0216717 0.0218709 0.0220703 0.0222698 0.0224696 0.0226695 0.0228696 0.0230699 0.0232704 0.0234711
0.0236721 0.0238732 0.0240745 0.0242761 0.0244778 0.0246798 0.0248821 0.0250845 0.0252872 0.0254902
0.0256934 0.0258969 0.0261006 0.0263046 0.0265089 0.0267134 0.0269183 0.0271234 0.0273289 0.0275346
0.0277407 0.0279471 0.0281538 0.0283608 0.0285682 0.028776 0.0289841 0.0291926 0.0294015 0.0296108
0.0298204 0.0298563 0.0298921 0.029928 0.0299639 0.029999 0.0301737 0.0303487 0.030524 0.0306996
0.0308755 0.0310877 0.0313005 0.0315138 0.0317276 0.0319419 0.0321567 0.0323721 0.032588 0.0328046
0.0330217 0.0332395 0.0334578 0.0336769 0.0338966 0.034117 0.0343381 0.03456 0.0347826 0.0350061
0.0352303 0.0354554 0.0356813 0.0359081 0.0361359 0.0363646 0.0365943 0.0368251 0.0370569 0.0372899
0.037524 0.0377592 0.0379957 0.0382335 0.0384726 0.0387131 0.038955 0.0391985 0.0394436 0.0396905
0.0399389 0.0401889 0.0404409 0.0406948 0.0409509 0.0412089 0.041469 0.0417316 0.0419968 0.0422646
0.042535 0.0428087 0.0430853 0.0433651 0.0436483 0.0439351 0.0442248 0.0445186 0.0448165 0.0451187
0.0454265 0.0457363 0.0460508 0.0463699 0.0466935 0.0470274 0.0471851 0.0473441 0.0475042 0.0476653
0.0477428 0.0479482 0.0481549 0.048363 0.0485722 0.0487897 0.0490904 0.0493932 0.0496976 0.050001
0.0500917 0.0502109 0.0503299 0.0504484 0.0505667 0.0506895 0.0508864 0.0510811 0.0512737 0.051464
0.0515878 0.051792 0.0519927 0.0521899 0.0523836 0.0525887 0.0526152 0.0526417 0.0526681 0.0526944