# vtk DataFile Version 2.0
tracks
ASCII
DATASET POLYDATA
POINTS 19520 float
-1.001 1e-07 0.0011 -0.99955 9.96427e-08 0.00110002 -0.9981 9.9282e-08 0.00110004 -0.99665 9.89177e-08
0.00110007 -0.9952 9.85501e-08 0.0011001 -0.99375 9.81789e-08 0.00110014 -0.99 9.71908e-08 0.00110023
-0.98625 9.62207e-08 0.00110033 -0.9825 9.52504e-08 0.00110043 -0.97875 9.42666e-08 0.00110054 -0.975
9.32565e-08 0.00110067 -0.97125 9.22026e-08 0.00110082 -0.9675 9.1166e-08 0.00110097 -0.96375 9.0129e-08
0.00110112 -0.96 8.90841e-08 0.00110127 -0.95625 8.80243e-08 0.00110144 -0.9525 8.69415e-08 0.00110161
-0.94875 8.58665e-08 0.00110178 -0.945 8.47911e-08 0.00110194 -0.94125 8.36975e-08 0.00110212 -0.9375
8.25687e-08 0.00110229 -0.93375 8.13891e-08 0.00110247 -0.93 8.02252e-08 0.00110264 -0.92625 7.90608e-08
0.00110282 -0.9225 7.78806e-08 0.001103 -0.91875 7.66699e-08 0.00110318 -0.915 7.54137e-08 0.00110337
-0.91125 7.41725e-08 0.00110355 -0.9075 7.29307e-08 0.00110373 -0.90375 7.16958e-08 0.00110392 -0.9
7.04743e-08 0.00110411 -0.89625 6.92522e-08 0.0011043 -0.8925 6.80708e-08 0.0011045 -0.88875 6.69158e-08
0.0011047 -0.885 6.57742e-08 0.0011049 -0.88125 6.46322e-08 0.00110511 -0.8775 6.34848e-08 0.00110531
-0.87375 6.23301e-08 0.00110552 -0.87 6.11628e-08 0.00110573 -0.86625 5.99886e-08 0.00110595 -0.8625
5.88139e-08 0.00110616 -0.85875 5.76345e-08 0.00110638 -0.855 5.64278e-08 0.0011066 -0.85125 5.51891e-08
0.00110683 -0.8475 5.39333e-08 0.00110705 -0.84375 5.2677e-08 0.00110728 -0.84 5.14086e-08 0.00110751
-0.83625 5.01256e-08 0.00110775 -0.8325 4.8816e-08 0.00110799 -0.82875 4.7492e-08 0.00110823 -0.825
4.61674e-08 0.00110848 -0.82125 4.48391e-08 0.00110872 -0.8175 4.35138e-08 0.00110897 -0.81375 4.21879e-08
0.00110923 -0.81 4.08615e-08 0.00110949 -0.80625 3.95343e-08 0.00110975 -0.8025 3.8204e-08 0.00111001
-0.79875 3.68982e-08 0.00111028 -0.795 3.5614e-08 0.00111055 -0.79125 3.43409e-08 0.00111083 -0.7875
3.30673e-08 0.00111111 -0.78375 3.17846e-08 0.00111139 -0.78 3.05232e-08 0.00111167 -0.77625 2.92742e-08
0.00111197 -0.7725 2.80316e-08 0.00111227 -0.76875 2.67884e-08 0.00111256 -0.765 2.55374e-08 0.00111286
-0.76125 2.43004e-08 0.00111317 -0.7575 2.307e-08 0.00111348 -0.75375 2.18428e-08 0.0011138 -0.75
2.06149e-08 0.00111412 -0.74625 1.93852e-08 0.00111444 -0.7425 1.81677e-08 0.00111477 -0.73875 1.6961e-08
0.00111511 -0.735 1.57598e-08 0.00111545 -0.73125 1.45579e-08 0.0011158 -0.7275 1.33545e-08 0.00111614
-0.72375 1.21721e-08 0.00111649 -0.72 1.10096e-08 0.00111686 -0.71625 9.85764e-09 0.00111723 -0.7125
8.70498e-09 0.00111759 -0.70875 7.55113e-09 0.00111796 -0.705 6.43295e-09 0.00111834 -0.70125 5.34986e-09
0.00111873 -0.6975 4.28584e-09 0.00111913 -0.69375 3.22108e-09 0.00111953 -0.691485 2.57686e-09 0.00111976
-0.68922 1.95045e-09 0.00112001 -0.686955 1.34117e-09 0.00112026 -0.68469 7.49028e-10 0.00112051 -0.681739
1.17727e-17 0.00112084 -0.680391 -3.39942e-10 0.001121 -0.679044 -6.79975e-10 0.00112115 -0.677696 -1.0201e-09
0.0011213 -0.676348 -1.36031e-09 0.00112145 -0.675 -1.70062e-09 0.00112161 -0.67125 -2.64759e-09 0.00112203
-0.6675 -3.53503e-09 0.00112247 -0.66375 -4.36273e-09 0.00112292 -0.66 -5.15712e-09 0.00112338 -0.65625
-5.95214e-09 0.00112384 -0.6525 -6.74553e-09 0.0011243 -0.64875 -7.47073e-09 0.00112477 -0.645 -8.1252e-09
0.00112526 -0.64125 -8.73975e-09 0.00112575 -0.6375 -9.35482e-09 0.00112624 -0.63375 -9.97007e-09 0.00112674
-0.63 -1.05178e-08 0.00112724 -0.62625 -1.09971e-08 0.00112777 -0.6225 -1.14375e-08 0.0011283 -0.61875
-1.18782e-08 0.00112883 -0.615 -1.2319e-08 0.00112936 -0.61125 -1.26779e-08 0.0011299 -0.6075 -1.2954e-08
0.00113046 -0.60375 -1.31821e-08 0.00113103 -0.6 -1.34105e-08 0.0011316 -0.59625 -1.36387e-08 0.00113217
-0.5925 -1.38681e-08 0.00113274 -0.58875 -1.40977e-08 0.00113332 -0.585 -1.42676e-08 0.0011339 -0.58125
-1.43353e-08 0.00113449 -0.5775 -1.42932e-08 0.00113511 -0.57375 -1.4259e-08 0.00113572 -0.57 -1.42248e-08
0.00113633 -0.56625 -1.41286e-08 0.00113696 -0.5625 -1.39277e-08 0.0011376 -0.55875 -1.3614e-08 0.00113826
-0.555 -1.33084e-08 0.00113892 -0.55125 -1.30024e-08 0.00113957 -0.5475 -1.26388e-08 0.00114025 -0.54375
-1.21791e-08 0.00114093 -0.54 -1.16228e-08 0.00114164 -0.53625 -1.10667e-08 0.00114235 -0.5325 -1.05098e-08
0.00114305 -0.52875 -9.89732e-09 0.00114377 -0.525 -9.19353e-09 0.00114451 -0.52125 -8.39196e-09 0.00114527
-0.5175 -7.59605e-09 0.00114602 -0.51375 -6.799e-09 0.00114678 -0.51 -5.93259e-09 0.00114755 -0.50625
-4.95392e-09 0.00114834 -0.502857 -3.96314e-09 0.00114907 -0.499464 -2.97462e-09 0.0011498 -0.49607 -1.98472e-09
0.00115053 -0.492677 -9.50896e-10 0.00115127 -0.489869 5.85547e-18 0.00115189 -0.489395 1.73775e-10 0.001152
-0.488921 3.49805e-10 0.00115211 -0.488448 5.28093e-10 0.00115221 -0.487974 7.08638e-10 0.00115232 -0.4875
8.91442e-10 0.00115243 -0.48375 2.35546e-09 0.00115329 -0.48 3.82274e-09 0.00115415 -0.47625 5.2925e-09
0.00115501 -0.4725 6.85722e-09 0.00115588 -0.46875 8.57074e-09 0.00115677 -0.465 1.04259e-08 0.00115767
-0.46125 1.2293e-08 0.00115858 -0.4575 1.41635e-08 0.00115949 -0.45375 1.61284e-08 0.00116041 -0.45
1.82384e-08 0.00116134 -0.44625 2.04758e-08 0.00116229 -0.4425 2.27381e-08 0.00116324 -0.43875 2.50047e-08
0.0011642 -0.435 2.73761e-08 0.00116516 -0.43125 2.99057e-08 0.00116613 -0.4275 3.25954e-08 0.00116712
-0.42375 3.52933e-08 0.0011681 -0.42 3.79969e-08 0.00116909 -0.41625 4.08218e-08 0.00117008 -0.4125
4.38266e-08 0.00117108 -0.40875 4.70147e-08 0.00117209 -0.405 5.02139e-08 0.00117309 -0.40125 5.34205e-08
0.0011741 -0.3975 5.67625e-08 0.00117511 -0.39375 6.03021e-08 0.00117611 -0.39 6.39552e-08 0.00117711
-0.38625 6.77123e-08 0.00117812 -0.3825 7.14788e-08 0.00117912 -0.37875 7.54028e-08 0.00118012 -0.375
7.95525e-08 0.00118109 -0.37125 8.38031e-08 0.00118206 -0.3675 8.82062e-08 0.00118302 -0.36375 9.26209e-08
0.00118398 -0.36 9.72298e-08 0.00118492 -0.35625 1.02112e-07 0.00118582 -0.3525 1.07283e-07 0.00118669
-0.34875 1.12478e-07 0.00118755 -0.345 1.17687e-07 0.00118842 -0.34125 1.23117e-07 0.00118924 -0.3375
1.28853e-07 0.00119 -0.33375 1.34638e-07 0.00119069 -0.33 1.40732e-07 0.00119138 -0.32625 1.46844e-07
0.00119208 -0.3225 1.53203e-07 0.0011927 -0.31875 1.599e-07 0.00119321 -0.315 1.6657e-07 0.00119363
-0.31125 1.73673e-07 0.00119404 -0.3075 1.80796e-07 0.00119445 -0.30375 1.88224e-07 0.00119475 -0.3
1.96068e-07 0.0011949 -0.29625 2.0382e-07 0.00119488 -0.2925 2.12603e-07 0.00119464 -0.28875 2.21848e-07
0.00119416 -0.285 2.31436e-07 0.00119351 -0.28125 2.41047e-07 0.00119286 -0.2775 2.50741e-07 0.00119221
-0.27375 2.61004e-07 0.00119123 -0.27 2.7181e-07 0.00118992 -0.26625 2.83013e-07 0.00118836 -0.2625
2.94237e-07 0.00118681 -0.25875 3.0557e-07 0.00118526 -0.255 3.17604e-07 0.00118323 -0.25125 3.30304e-07
0.00118073 -0.2475 3.43475e-07 0.00117789 -0.24375 3.56663e-07 0.00117505 -0.24 3.6852e-07 0.00117223
-0.23625 3.8267e-07 0.00116878 -0.2325 3.97607e-07 0.0011647 -0.22875 4.13066e-07 0.0011602 -0.225
4.28529e-07 0.00115573 -0.22125 4.4416e-07 0.00115128 -0.2175 4.61023e-07 0.00114597 -0.21375 4.79083e-07
0.0011398 -0.21 4.9786e-07 0.00113314 -0.20625 5.16614e-07 0.00112652 -0.2025 5.35589e-07 0.00111994
-0.19875 5.56123e-07 0.00111217 -0.195 5.78086e-07 0.0011032 -0.19125 6.00764e-07 0.00109365 -0.1875
6.23369e-07 0.00108419 -0.18375 6.42531e-07 0.00107483 -0.18 6.66876e-07 0.00106394 -0.17625 6.92776e-07
0.00105156 -0.1725 7.1922e-07 0.00103866 -0.16875 7.45501e-07 0.00102594 -0.165 7.6733e-07 0.0010134
-0.16125 7.95624e-07 0.00099908 -0.1575 8.25711e-07 0.000983026 -0.15375 8.56063e-07 0.00096673 -0.15
8.86127e-07 0.000950735 -0.14625 9.1046e-07 0.000935031 -0.1425 9.4367e-07 0.000917335 -0.13875 9.79854e-07
0.000897709 -0.135 1.01586e-06 0.000878337 -0.13125 1.05139e-06 0.00085942 -0.1275 1.08693e-06 0.000840944
-0.12375 1.12487e-06 0.000820407 -0.12 1.16481e-06 0.00079821 -0.11625 1.20407e-06 0.000776652 -0.1125
1.24268e-06 0.00075571 -0.10875 1.28116e-06 0.000735365 -0.105 1.32402e-06 0.000713002 -0.10125 1.3694e-06
0.00068967 -0.0975 1.41384e-06 0.000667128 -0.0937499 1.45738e-06 0.000645346 -0.0899999 1.49021e-06 0.000624294
-0.0862499 1.53414e-06 0.000601711 -0.0824999 1.57791e-06 0.000579055 -0.0787499 1.6207e-06 0.000557256 -0.0749999
1.66255e-06 0.000536283 -0.0712499 1.69234e-06 0.000516099 -0.0674999 1.72947e-06 0.000495819 -0.0637499 1.76537e-06
0.000476177 -0.0599999 1.80055e-06 0.000457302 -0.0562499 1.83505e-06 0.000439163 -0.0524999 1.86902e-06 0.000421728
-0.0487498 1.90365e-06 0.000406628 -0.0449998 1.9377e-06 0.000392052 -0.0412498 1.97121e-06 0.000377982 -0.0374998
2.00418e-06 0.000364402 -0.0337498 2.02422e-06 0.000351293 -0.0299998 2.05774e-06 0.000342602 -0.0262498 2.09096e-06
0.000334117 -0.0224998 2.12387e-06 0.000325835 -0.0187499 2.15649e-06 0.000317751 -0.0149999 2.17622e-06 0.000309859
-0.0112499 2.20297e-06 0.000306351 -0.0074999 2.22971e-06 0.000302882 -0.00374991 2.25643e-06 0.000299451 6.11906e-08
2.28313e-06 0.000296056 0.00375005 2.30921e-06 0.0002927 0.00750005 2.33409e-06 0.000289384 0.01125 2.35892e-06
0.000286104 0.015 2.38372e-06 0.00028286 0.01875 2.40849e-06 0.000279651 0.0225 2.42743e-06 0.000278563
0.02625 2.44538e-06 0.000277481 0.03 2.46337e-06 0.000276402 0.03375 2.4814e-06 0.000275328 0.0375
2.49948e-06 0.000274258 0.04125 2.51652e-06 0.000273736 0.045 2.53239e-06 0.000273216 0.04875 2.54831e-06
0.000272698 0.0525 2.56426e-06 0.00027218 0.05625 2.58026e-06 0.000271663 0.06 2.58811e-06 0.000271437
0.06375 2.60373e-06 0.000271212 0.0675 2.6194e-06 0.000270987 0.07125 2.6351e-06 0.000270762 0.075
2.65084e-06 0.000270537 0.07875 2.66827e-06 0.000270461 0.0825 2.68479e-06 0.000270386 0.08625 2.70135e-06
0.00027031 0.09 2.71795e-06 0.000270235 0.09375 2.7346e-06 0.00027016 0.0975 2.75474e-06 0.000270137
0.10125 2.77421e-06 0.000270114 0.105 2.79373e-06 0.000270092 0.10875 2.8133e-06 0.000270069 0.1125
2.83291e-06 0.000270047 0.11625 2.84848e-06 0.000270038 0.12 2.87136e-06 0.000270031 0.12375 2.8943e-06
[...]
POINT_DATA 19520
FIELD attributes 3
age 1 19520 float
0 7.3017e-05 0.000146038 0.000219062 0.00029209 0.000365122 0.000554006 0.000742891 0.000931776 0.00112068 0.00130961
0.00149858 0.00168754 0.00187651 0.0020655 0.00225451 0.00244357 0.00263262 0.00282168 0.00301075 0.00319986
0.00338901 0.00357815 0.0037673 0.00395647 0.00414568 0.00433492 0.00452417 0.00471342 0.00490269 0.005092
0.00528136 0.00547076 0.0056602 0.00584967 0.00603914 0.00622861 0.00641813 0.0066077 0.00679729 0.00698688
0.00717648 0.00736612 0.00755582 0.00774554 0.00793527 0.008125 0.00831478 0.00850462 0.00869448 0.00888435
0.00907422 0.00926415 0.00945414 0.00964416 0.00983418 0.0100242 0.0102143 0.0104044 0.0105946 0.0107848
0.010975 0.0111653 0.0113556 0.011546 0.0117363 0.0119267 0.0121171 0.0123076 0.0124982 0.0126888
0.0128793 0.01307 0.0132607 0.0134515 0.0136422 0.013833 0.0140238 0.0142148 0.0144058 0.0145968
0.0147878 0.0149789 0.0151701 0.0153613 0.0155525 0.0156681 0.0157836 0.0158992 0.0160148 0.0161655
0.0162343 0.0163032 0.016372 0.0164408 0.0165097 0.0167012 0.0168928 0.0170845 0.0172763 0.0174681
0.0176599 0.0178519 0.0180439 0.018236 0.0184281 0.0186203 0.0188125 0.0190049 0.0191974 0.0193898
0.0195823 0.0197749 0.0199677 0.0201605 0.0203534 0.0205462 0.0207391 0.0209319 0.0211249 0.021318
0.0215113 0.0217045 0.0218978 0.0220912 0.0222848 0.0224785 0.0226722 0.0228659 0.0230598 0.0232538
0.0234481 0.0236423 0.0238365 0.0240309 0.0242255 0.0244203 0.0246151 0.0248098 0.0250048 0.0252
0.0253768 0.0255536 0.0257304 0.0259073 0.0260538 0.0260786 0.0261034 0.0261281 0.0261529 0.0261776
0.0263737 0.0265698 0.0267659 0.0269621 0.0271587 0.0273555 0.0275523 0.0277491 0.0279462 0.0281435
0.0283411 0.0285388 0.0287365 0.0289343 0.0291325 0.0293311 0.0295297 0.0297282 0.029927 0.0301262
0.0303258 0.0305254 0.0307249 0.0309248 0.031125 0.0313257 0.0315264 0.0317271 0.0319281 0.0321295
0.0323314 0.0325333 0.0327352 0.0329374 0.0331401 0.0333433 0.0335466 0.0337498 0.0339534 0.0341575
0.0343622 0.0345668 0.0347715 0.0349765 0.0351821 0.0353883 0.0355945 0.0358007 0.0360073 0.0362145
0.0364223 0.0366307 0.0368396 0.037049 0.0372584 0.0374678 0.0376778 0.0378884 0.0380993 0.0383103
0.0385212 0.0387326 0.0389446 0.039157 0.0393693 0.0395816 0.0397942 0.0400074 0.0402208 0.0404341
0.0406472 0.0408607 0.0410745 0.0412883 0.041502 0.0417156 0.0419291 0.0421427 0.0423561 0.0425693
0.0427822 0.0429947 0.0432068 0.0434185 0.0436299 0.043841 0.0440511 0.0442604 0.044469 0.0446774
0.0448853 0.0450917 0.0452966 0.0455011 0.0457051 0.0459087 0.0461102 0.0463098 0.046509 0.0467079
0.0469064 0.0471022 0.0472961 0.0474899 0.0476834 0.0478767 0.0480666 0.0482552 0.0484437 0.0486322
0.0488207 0.0490055 0.0491898 0.0493742 0.0495588 0.0497434 0.0499247 0.0501062 0.0502879 0.0504698
0.0506519 0.0508319 0.0510121 0.0511924 0.0513729 0.0515536 0.0517336 0.0519136 0.0520937 0.0522739
0.0524542 0.0526346 0.052815 0.0529955 0.0531761 0.0533568 0.0535375 0.0537183 0.053899 0.0540798
0.0542609 0.054442 0.0546231 0.0548042 0.0549853 0.0551668 0.0553482 0.0555297 0.0557112 0.0558926
0.0560744 0.0562562 0.056438 0.0566197 0.0568015 0.0569836 0.0571657 0.0573477 0.0575298 0.0577119
0.0578942 0.0580766 0.0582589 0.0584413 0.0586237 0.0588063 0.058989 0.0591716 0.0593543 0.0595369
0.0597199 0.0599028 0.0600858 0.0602687 0.0604517 0.0606349 0.0608182 0.0610014 0.0611847 0.0613679
0.0615515 0.0617351 0.0619186 0.0621022 0.0622857 0.0624696 0.0626534 0.0628373 0.0630211 0.063205
0.0633891 0.0635732 0.0637573 0.0639415 0.0641256 0.06431 0.0644943 0.0646787 0.0648631 0.0650475
0.0652321 0.0654167 0.0656013 0.0657859 0.0659705 0.0661553 0.0663401 0.066525 0.0667098 0.0668946
0.0670796 0.0672648 0.06745 0.0676351 0.0678203 0.0680055 0.0681908 0.0683761 0.0685614 0.0687468
0.0689321 0.0691176 0.069303 0.0694885 0.0696739 0.0698587 0.0700436 0.0702286 0.0704135 0.0705062
0.0705253 0.0705444 0.0705635 0.0705826 0.0706017 0.0707873 0.070973 0.0711586 0.0713443 0.07153
0.0717157 0.0719014 0.0720872 0.0722729 0.0724587 0.0726444 0.0728303 0.0730161 0.0732019 0.0733877
0.0735735 0.0737594 0.0739452 0.0741311 0.074317 0.0745028 0.0746887 0.0748746 0.0750605 0.0752463
0.0754322 0.0756181 0.075804 0.0759899 0.0761757 0.0763616 0.0765475 0.0767334 0.0769192 0.0771051
0.077291 0.0774768 0.0776626 0.0778484 0.0780343 0.0782201 0.0784059 0.0785917 0.0787775 0.0789633
0.0791491 0.0793348 0.0795206 0.0797063 0.0798921 0.0800778 0.0802636 0.0804493 0.080635 0.0808208
0.0810065 0.0811923 0.081378 0.0815638 0.0817495 0.0819353 0.0821211 0.0823068 0.0824926 0.0826783
0.0828641 0.0830499 0.0832357 0.0834215 0.0836073 0.0837931 0.083979 0.0841648 0.0843507 0.0845365
0.0847225 0.0849084 0.0850943 0.0852802 0.0854661 0.0856521 0.0858381 0.0860241 0.0862101 0.0863961
0.0865822 0.0867682 0.0869543 0.0871403 0.0873264 0.0875125 0.0876987 0.0878848 0.0880709 0.0882571
0.0884433 0.0886295 0.0888157 0.0890019 0.0891881 0.0893743 0.0895606 0.0897469 0.0899331 0.0901194
0.0903057 0.090492 0.0906784 0.0908647 0.091051 0.0912374 0.0914238 0.0916102 0.0917965 0.0919829
0.0921694 0.0923558 0.0925423 0.0927287 0.0929151 0.0931017 0.0932882 0.0934747 0.0936612 0.0938477
0.0940342 0.0942208 0.0944074 0.0945939 0.0947805 0.0949671 0.0951538 0.0953404 0.095527 0.0957137
0.0959004 0.0960871 0.0962738 0.0964605 0.0966473 0.0968341 0.097021 0.0972079 0.0973948 0.0975817
0.0977686 0.0979556 0.0981427 0.0983297 0.0985167 0.0987038 0.098891 0.0990781 0.0992653 0.0994525
0.0996397 0.099827 0.100014 0.100202 0.100389 0.100576 0.100763 0.100951 0.101138 0.101325
0.101513 0.1017 0.101887 0.102075 0.102262 0.102449 0.102637 0.102824 0.103012 0.103199
0.103386 0.103574 0.103761 0.103948 0.104136 0.104323 0.104511 0.104698 0.104885 0.105073
0.10526 0.105448 0.105635 0.105822 0.10601 0.106197 0.106385 0.106572 0.10676 0.106947
0.107135 0.107322 0.10751 0.107697 0.107885 0.108072 0.10826 0.108448 0.108635 0.108823
0.10901 0.109198 0.109386 0.109574 0.109762 0.109949 0.110137 0.110325 0.110513 0.110701
0.110889 0.111077 0.111265 0.111453 0.111642 0.11183 0.112018 0.112206 0.112394 0.112582
0.11277 0.112959 0.113147 0.113335 0.113524 0.113712 0.113901 0.114089 0.114278 0.114467
0.114655 0.114844 0.115033 0.115222 0.115411 0.1156 0.115789 0.115978 0.116167 0.116356
0.116545 0.116734 0.116924 0.117113 0.117302 0.117492 0.117681 0.117871 0.11806 0.118249
0.118439 0.118629 0.118819 0.119008 0.119198 0.119388 0.119578 0.119768 0.119957 0.120147
0.120282 0.120416 0.12055 0.120685 0.120823 0.120878 0.120933 0.120988 0.121043 0.121098
0.121288 0.121478 0.121668 0.121858 0.122049 0.122239 0.122429 0.122619 0.12281 0.123
0.12319 0.123381 0.123571 0.123761 0.123952 0.124142 0.124332 0.124523 0.124713 0.124903
0.125093 0.125284 0.125474 0.125664 0.125855 0.126045 0.126235 0.126425 0.126615 0.126805
0.126996 0.127186 0.127376 0.127566 0.127755 0.127945 0.128135 0.128325 0.128515 0.128705
0.128894 0.129084 0.129274 0.129463 0.129653 0.129842 0.130032 0.130221 0.130411 0.1306
0.130789 0.130979 0.131168 0.131357 0.131546 0.131735 0.131925 0.132114 0.132303 0.132492
0.132681 0.13287 0.133059 0.133248 0.133437 0.133625 0.133814 0.134003 0.134192 0.134381
0.134569 0.134758 0.134947 0.135136 0.135324 0.135513 0.135701 0.13589 0.136079 0.136267
0.136456 0.136644 0.136833 0.137021 0.13721 0.137398 0.137587 0.137775 0.137964 0.138152
0.138341 0.138529 0.138717 0.138906 0.139094 0.139283 0.139471 0.139659 0.139848 0.140036
0.140224 0.140413 0.140601 0.140789 0.140977 0.141166 0.141354 0.141542 0.141731 0.141919
0.142107 0.142295 0.142484 0.142672 0.14286 0.143048 0.143236 0.143425 0.143613 0.143801
0.143989 0.144177 0.144365 0.144554 0.144742 0.14493 0.145118 0.145306 0.145494 0.145683
0.145871 0.146059 0.146247 0.146435 0.146623 0.146811 0.146999 0.147187 0.147376 0.147564
0.147752 0.14794 0.148128 0.148316 0.148504 0.148692 0.14888 0.149068 0.149256 0.149445
0.149633 0.149821 0.150009 0.150197 0.150385 0.150573 0.150761 0.150949 0.151137 0.151325
0.151701 0.152077 0.152453 0.152829 0.153205 0.153956 0.154708 0.155459 0.15621 0.15696
0.158461 0.159962 0.161462 0.162963 0.164463 0.165963 0.167464 0.168964 0.170464 0.171965
0.174965 0.177966 0.180966 0.183966 0.186967 0.192967 0.198967 0.204968 0.210968 0.216968
0.222968 0.228968 0.234968 0.240968 0.246968 0.252968 0.258969 0.264969 0.270969 0.276969
0.282969 0.288969 0.294969 0.300969 0.306969 0.312969 0.318969 0.324969 0.330969 0.336969
0.34297 0.34897 0.35497 0.36097 0.36697 0.37297 0.37897 0.38497 0.39097 0.39697
0.40297 0.403816 0 7.36926e-05 0.000147389 0.00022109 0.000294794 0.000368502 0.00055914 0.000749811
0.000940517 0.00113126 0.00132203 0.00151284 0.00170368 0.00189456 0.00208547 0.00227642 0.00246741 0.00265843
0.00284949 0.00304059 0.00323172 0.0034229 0.00361411 0.00380537 0.00399666 0.004188 0.00437938 0.0045708
0.00476226 0.00495377 0.00514532 0.00533692 0.00552856 0.00572025 0.00591198 0.00610376 0.00622476 0.00634577
0.0064668 0.00658785 0.00670457 0.00677634 0.00684811 0.00691989 0.00699167 0.00706347 0.00725554 0.00744768
0.00763986 0.00783211 0.0080244 0.00821675 0.00840915 0.00860162 0.00879414 0.00898672 0.00917936 0.00937206
0.00956482 0.00975765 0.00995054 0.0101435 0.0103365 0.0105296 0.0107227 0.010916 0.0111093 0.0113026
0.011496 0.0116895 0.0118831 0.0120768 0.0122705 0.0124643 0.0126582 0.0128522 0.0130462 0.0132403
0.0134346 0.0136289 0.0138232 0.0140177 0.0142123 0.0144069 0.0146017 0.0147965 0.0149914 0.0151865
0.0153816 0.0155768 0.0157722 0.0159676 0.0161631 0.0163588 0.0165545 0.0167504 0.0169464 0.0171425
0.0173387 0.017535 0.0177315 0.017928 0.0181247 0.0183216 0.0185185 0.0187156 0.0189128 0.0191102
0.0193077 0.0195053 0.0197031 0.019901 0.0200991 0.0202974 0.0204958 0.0206943 0.020893 0.0210919
0.0212909 0.0214901 0.0216895 0.021889 0.0220888 0.0222887 0.0224888 0.0226891 0.0228896 0.0230903
0.0232912 0.0234923 0.0236936 0.0238951 0.0240969 0.0242988 0.024501 0.0247035 0.0249061 0.025109
0.0253122 0.0255156 0.0257192 0.0259232 0.0261273 0.0263318 0.0265366 0.0267416 0.0269469 0.0271525
0.0273584 0.0275647 0.0277712 0.0279781 0.0281853 0.0283928 0.0286007 0.028809 0.0290176 0.0292265
0.0294359 0.0296456 0.0298557 0.0299643 0.0300729 0.0301817 0.0302906 0.0303842 0.0304898 0.0305955
0.0307013 0.0308072 0.0309132 0.0311259 0.031339 0.0315527 0.0317668 0.0319814 0.0321965 0.0324121
0.0326283 0.0328451 0.0330623 0.0332802 0.0334986 0.0337176 0.0339373 0.0341576 0.0343785 0.0346
0.0348223 0.0350453 0.0352689 0.0354933 0.0357184 0.0359443 0.036171 0.0363984 0.0366267 0.0368558
0.0370858 0.0373167 0.0375485 0.0377811 0.0380147 0.0382493 0.0384848 0.0387214 0.038959 0.0391976
0.0394374 0.0396783 0.0399203 0.0401634 0.0404076 0.040653 0.0408996 0.0411474 0.0413965 0.0416469
0.0418986 0.0421516 0.042406 0.0426616 0.0429183 0.0431762 0.0434354 0.0436963 0.0439583 0.0442216
0.0444861 0.0447515 0.045019 0.0452869 0.0455554 0.0458244 0.0460939 0.0463659 0.0464987 0.0466315
0.0467641 0.0468966 0.0469781 0.0471274 0.0472766 0.0474256 0.0475745 0.0477243 0.0479953 0.0482646
0.0485321 0.0487976 0.0490662 0.0492175 0.0493676 0.0495164 0.049664 0.0497767 0.0498927 0.0500081
0.0501227 0.0502366 0.0503507 0.0505985 0.0508411 0.0510787 0.0513116 0.0515411 0.0515601 0.051579
0.0515978 0.0516166 0.0516355 0.0518386 0.0520372 0.0522317 0.0524221 0.0526066 0.0527216 0.0528348
0.0529463 0.0530563 0.0531951 0.0532659 0.0533362 0.0534058 0.0534749 0.053543 0.0537177 0.0538889
0.0540565 0.054221 0.054379 0.0545214 0.0546622 0.0548014 0.0549391 0.0551468 0.055167 0.0551873
0.0552075 0.0552277 0.0552518 0.0553775 0.0555028 0.0556276 0.0557519 0.055875 0.0560183 0.0561618
0.0563053 0.056449 0.0565926 0.0565936 0.0565945 0.0565955 0.0565964 0.0565973 0.0567401 0.0568832
0.0570266 0.0571704 0.0573145 0.0574599 0.0576057 0.0577519 0.0578984 0.0580453 0.0581926 0.0583401
0.058488 0.0586362 0.0587847 0.0589336 0.0590827 0.0592323 0.0593821 0.0595322 0.0596827 0.0598334
0.0599845 0.0601359 0.0602875 0.0604395 0.0605919 0.0607445 0.0608975 0.0610508 0.0612044 0.0613583
0.0615126 0.0616672 0.0618222 0.0619775 0.0621332 0.0622892 0.0624456 0.0626023 0.0627594 0.0629168
0.0630746 0.0632328 0.0633913 0.0634016 0.0634119 0.0634222 0.0634325 0.0634425 0.0635913 0.0637404
0.0638898 0.0640395 0.0641896 0.0643503 0.0645113 0.0646727 0.0648344 0.0649965 0.0651589 0.0653217
0.0654848 0.0656483 0.0658121 0.0659762 0.0661406 0.0663053 0.0664703 0.0666357 0.0668014 0.0669673
0.0671336 0.0673001 0.067467 0.0676341 0.0678015 0.0679691 0.068137 0.0683052 0.0683674 0.0684297
0.068492 0.0685543 0.0685923 0.0687037 0.0688152 0.0689268 0.0690384 0.0691502 0.0693199 0.0694898
0.0696599 0.0698302 0.0700008 0.0701716 0.0703426 0.0705138 0.0706852 0.0708568 0.0710286 0.0712005
0.0713727 0.071545 0.0717175 0.0718902 0.072063 0.072236 0.0724092 0.0725825 0.072756 0.0729296
0.0731034 0.0732773 0.0734513 0.0736255 0.0737998 0.0739742 0.0741487 0.0743234 0.0744981 0.0746729
0.0748478 0.0750228 0.0751979 0.0753731 0.0755484 0.0757237 0.0758991 0.0760745 0.07625 0.0764255
0.076601 0.0767766 0.0769522 0.0771278 0.0773034 0.0774791 0.0776547 0.0778303 0.0780059 0.0781815
0.0783571 0.0785326 0.0787081 0.0788836 0.079059 0.0792344 0.0794098 0.0795851 0.0797604 0.0799357
0.0801109 0.0802861 0.0804612 0.0806363 0.0808114 0.0809866 0.0811617 0.0813368 0.0815118 0.0816869
0.0818621 0.0820372 0.0822124 0.0823877 0.082563 0.0827383 0.0829138 0.0830893 0.0832649 0.0834406
0.0836164 0.0837922 0.0839682 0.0841443 0.0843205 0.0844969 0.0846734 0.0848499 0.0850267 0.0852035
0.0853804 0.0855575 0.0857347 0.0859121 0.0860896 0.0862673 0.0864451 0.086623 0.086801 0.0869792
0.0871575 0.0873359 0.0875144 0.0876931 0.087872 0.088051 0.0882301 0.0884093 0.0885887 0.0887681
0.0889477 0.0891275 0.0893073 0.0894873 0.0896674 0.0898477 0.0900281 0.0902086 0.0903892 0.0905699
0.0907508 0.0909317 0.0911128 0.0912941 0.0914754 0.0916569 0.0918385 0.0920202 0.0922021 0.0923841
0.0925661 0.0927483 0.0929307 0.0931132 0.0932958 0.0934786 0.0936615 0.0938445 0.0940277 0.094211
0.0943944 0.094578 0.0947617 0.0949457 0.0951297 0.095314 0.0954984 0.0956829 0.0958677 0.0960526
0.0962377 0.0964229 0.0966084 0.0967941 0.09698 0.0971662 0.0973526 0.0975392 0.0977261 0.0979132
0.0981007 0.0982884 0.0984764 0.0986652 0.0988543 0.0990438 0.0992336 0.0994236 0.0996131 0.0998028
0.0999926 0.100183 0.100373 0.100564 0.100755 0.100946 0.101137 0.101328 0.10152 0.101712
0.101903 0.102095 0.102287 0.10248 0.102672 0.102865 0.103058 0.103251 0.103445 0.103638
0.103832 0.104025 0.104219 0.104414 0.104609 0.104804 0.105 0.105195 0.105348 0.105502
0.105655 0.105809 0.10596 0.106004 0.106049 0.106093 0.106137 0.106182 0.10638 0.10658
0.10678 0.10698 0.107182 0.107384 0.107587 0.107791 0.107996 0.108202 0.108408 0.108615
0.108823 0.109031 0.109241 0.109451 0.109663 0.109875 0.110089 0.110303 0.110518 0.110734
0.110951 0.111169 0.111388 0.111607 0.111828 0.11205 0.112272 0.112496 0.11272 0.112946
0.113172 0.1134 0.113628 0.113647 0.113666 0.113686 0.113705 0.113724 0.113934 0.114146
0.114358 0.114571 0.114785 0.115019 0.115254 0.115491 0.115728 0.115966 0.116206 0.116446
0.116687 0.11693 0.117173 0.117418 0.117664 0.117911 0.118159 0.118408 0.118658 0.118909
0.119162 0.119415 0.11967 0.119926 0.120183 0.120441 0.120701 0.120962 0.121224 0.121487
0.121752 0.122018 0.122285 0.122553 0.122823 0.123093 0.123365 0.123638 0.123912 0.124187
0.124463 0.124739 0.125016 0.125294 0.125573 0.125852 0.126132 0.126412 0.126691 0.12697
0.127249 0.127528 0.127806 0.128084 0.128362 0.12864 0.128917 0.129193 0.129468 0.129742
0.130014 0.130285 0.130556 0.130825 0.131095 0.131364 0.131632 0.131899 0.132164 0.132428
0.132691 0.132953 0.133214 0.133475 0.133734 0.133993 0.134252 0.134509 0.134765 0.135021
0.135275 0.135529 0.135783 0.136035 0.136287 0.136538 0.136789 0.137039 0.137117 0.137195
0.137273 0.137351 0.137432 0.137602 0.137771 0.137941 0.13811 0.138278 0.138524 0.13877
0.139015 0.13926 0.139504 0.139747 0.13999 0.140232 0.140474 0.140716 0.140957 0.141197
0.141438 0.141678 0.141918 0.142157 0.142396 0.142634 0.142873 0.143111 0.143349 0.143586
0.143824 0.144061 0.144298 0.144534 0.144771 0.145007 0.145243 0.145479 0.145715 0.145951
0.146186 0.146422 0.146657 0.146892 0.147127 0.147362 0.147597 0.147832 0.148067 0.148301
0.148536 0.148771 0.149005 0.14924 0.149474 0.149709 0.149943 0.150178 0.150412 0.150646
0.150881 0.151115 0.15135 0.151584 0.151819 0.152053 0.152288 0.152523 0.152757 0.152992
0.153227 0.153462 0.153697 0.153932 0.154167 0.154402 0.154637 0.154873 0.155108 0.155344
0.155579 0.155815 0.156051 0.156286 0.156523 0.156759 0.156995 0.157232 0.157468 0.157704
0.157941 0.158178 0.158415 0.158652 0.158889 0.159127 0.159364 0.159602 0.159839 0.160077
0.160315 0.160553 0.160791 0.161029 0.161268 0.161506 0.161745 0.161984 0.162222 0.162461
0.1627 0.162939 0.163179 0.163417 0.163657 0.163897 0.164137 0.164377 0.1645 0.164623
0.164746 0.164869 0.16499 0.165348 0.165705 0.166054 0.166396 0.166731 0.167599 0.168467
0.169331 0.170179 0.171003 0.172592 0.174139 0.175686 0.177231 0.178776 0.180307 0.181842
0.183376 0.18491 0.186443 0.189487 0.192531 0.195574 0.198613 0.201651 0.207674 0.213697
0.219719 0.225741 0.231761 0.237766 0.243777 0.249788 0.2558 0.261811 0.267814 0.273825
0.279835 0.285846 0.291857 0.297859 0.30387 0.30988 0.31589 0.3219 0.327903 0.333912
0.339922 0.345932 0.351942 0.357944 0.363954 0.369963 0.375972 0.381981 0.387983 0.393992
0.400001 0.406009 0.412018 0.418019 0.424085 0.430211 0.436399 0.442649 0 7.36687e-05
0.000147342 0.00022102 0.000294703 0.00036839 0.000558973 0.000749589 0.000940239 0.00113092 0.00132164 0.00151238
0.00170317 0.00189398 0.00208484 0.00227572 0.00246664 0.0026576 0.0028486 0.00303963 0.0032307 0.00342181
0.00361295 0.00380414 0.00399536 0.00418663 0.00437793 0.00456928 0.00476067 0.0049521 0.00514358 0.00533509
0.00552666 0.00571826 0.00590992 0.00610162 0.00619131 0.00628102 0.00637074 0.00646046 0.00654869 0.0066511
0.00675353 0.00685597 0.00695842 0.00706089 0.00725288 0.00744492 0.00763701 0.00782916 0.00802135 0.0082136
0.00840591 0.00859828 0.0087907 0.00898317 0.0091757 0.0093683 0.00956095 0.00975366 0.00994644 0.0101393
0.0103322 0.0105251 0.0107182 0.0109113 0.0111044 0.0112977 0.011491 0.0116843 0.0118778 0.0120713
0.0122649 0.0124586 0.0126523 0.0128461 0.01304 0.013234 0.0134281 0.0136222 0.0138164 0.0140107
0.0142051 0.0143996 0.0145942 0.0147889 0.0149836 0.0151785 0.0153734 0.0155685 0.0157636 0.0159589
0.0161542 0.0163497 0.0165452 0.0167409 0.0169367 0.0171326 0.0173286 0.0175247 0.0177209 0.0179173
0.0181137 0.0183103 0.018507 0.0187039 0.0189009 0.019098 0.0192952 0.0194926 0.0196901 0.0198878
0.0200856 0.0202836 0.0204817 0.0206799 0.0208784 0.0210769 0.0212757 0.0214746 0.0216737 0.0218729
0.0220723 0.0222719 0.0224717 0.0226717 0.0228718 0.0230722 0.0232727 0.0234735 0.0236745 0.0238756
0.024077 0.0242786 0.0244804 0.0246825 0.0248847 0.0250873 0.02529 0.025493 0.0256963 0.0258998
0.0261036 0.0263077 0.026512 0.0267166 0.0269156 0.0271149 0.0273145 0.0275144 0.0276672 0.0276826
0.027698 0.0277134 0.0277288 0.0277443 0.0279507 0.0281575 0.0283646 0.0285721 0.0287799 0.0289881
0.0291966 0.0294056 0.0296149 0.0298247 0.0298604 0.0298961 0.0299319 0.0299677 0.0300027 0.0301776
0.0303527 0.0305282 0.030704 0.0308801 0.0310924 0.0313053 0.0315187 0.0317325 0.0319469 0.0321618
0.0323773 0.0325933 0.03281 0.0330272 0.033245 0.0334635 0.0336826 0.0339024 0.0341229 0.0343441
0.0345661 0.0347889 0.0350124 0.0352367 0.0354619 0.0356879 0.0359149 0.0361427 0.0363715 0.0366013
0.0368322 0.0370642 0.0372973 0.0375314 0.0377668 0.0380034 0.0382413 0.0384805 0.0387211 0.0389631
0.0392067 0.039452 0.0396989 0.0399474 0.0401975 0.0404496 0.0407037 0.0409598 0.041218 0.0414781
0.0417409 0.0420061 0.042274 0.0425445 0.0428182 0.043095 0.0433749 0.0436581 0.0439451 0.0442348
0.0445287 0.0448268 0.0451292 0.0454371 0.0457471 0.0460619 0.0463812 0.0467053 0.0470396 0.0472107