# vtk DataFile Version 2.0
tracks
ASCII
DATASET POLYDATA
POINTS 19458 float
-1.001 1e-07 0.0011 -0.99955 9.57939e-08 0.00110002 -0.9981 9.15703e-08 0.00110004 -0.99665 8.73294e-08
0.00110007 -0.9952 8.30711e-08 0.0011001 -0.99375 7.87952e-08 0.00110014 -0.99 6.76767e-08 0.00110024
-0.98625 5.65697e-08 0.00110034 -0.9825 4.54596e-08 0.00110043 -0.97875 3.42635e-08 0.00110054 -0.975
2.29018e-08 0.00110067 -0.973511 1.83214e-08 0.00110073 -0.972021 1.37422e-08 0.0011008 -0.970532 9.16232e-09
0.00110086 -0.969042 4.58188e-09 0.00110092 -0.967552 1.64204e-17 0.00110098 -0.965292 -6.95323e-09 0.00110107
-0.963031 -1.39179e-08 0.00110116 -0.960771 -2.09437e-08 0.00110125 -0.95851 -2.80308e-08 0.00110135 -0.95625
-3.51793e-08 0.00110145 -0.9525 -4.71332e-08 0.00110162 -0.94875 -5.90981e-08 0.00110179 -0.945 -7.10671e-08
0.00110196 -0.94125 -8.31211e-08 0.00110213 -0.9375 -9.53366e-08 0.00110231 -0.93375 -1.07705e-07 0.00110249
-0.93 -1.20087e-07 0.00110267 -0.92625 -1.32474e-07 0.00110284 -0.9225 -1.44941e-07 0.00110302 -0.91875
-1.57561e-07 0.00110321 -0.915 -1.7032e-07 0.00110339 -0.91125 -1.83098e-07 0.00110358 -0.9075 -1.95881e-07
0.00110376 -0.90375 -2.08745e-07 0.00110395 -0.9 -2.21762e-07 0.00110414 -0.89625 -2.34915e-07 0.00110433
-0.8925 -2.48239e-07 0.00110453 -0.88875 -2.61715e-07 0.00110473 -0.885 -2.75272e-07 0.00110494 -0.88125
-2.88834e-07 0.00110514 -0.8775 -3.02342e-07 0.00110535 -0.87375 -3.16058e-07 0.00110555 -0.87 -3.29918e-07
0.00110577 -0.86625 -3.43858e-07 0.00110599 -0.8625 -3.57804e-07 0.0011062 -0.85875 -3.71679e-07 0.00110642
-0.855 -3.85777e-07 0.00110664 -0.85125 -4.0002e-07 0.00110687 -0.8475 -4.14342e-07 0.0011071 -0.84375
-4.2867e-07 0.00110733 -0.84 -4.42973e-07 0.00110756 -0.83625 -4.5746e-07 0.00110779 -0.8325 -4.72096e-07
0.00110804 -0.82875 -4.86815e-07 0.00110828 -0.825 -5.01541e-07 0.00110853 -0.82125 -5.16158e-07 0.00110877
-0.8175 -5.3105e-07 0.00110902 -0.81375 -5.46099e-07 0.00110928 -0.81 -5.61235e-07 0.00110954 -0.80625
-5.76377e-07 0.0011098 -0.8025 -5.91389e-07 0.00111007 -0.79875 -6.06706e-07 0.00111033 -0.795 -6.22185e-07
0.00111061 -0.79125 -6.37754e-07 0.00111089 -0.7875 -6.53331e-07 0.00111117 -0.78375 -6.68874e-07 0.00111145
-0.78 -6.84633e-07 0.00111174 -0.77625 -7.00559e-07 0.00111203 -0.7725 -7.16578e-07 0.00111233 -0.76875
-7.32606e-07 0.00111263 -0.765 -7.48597e-07 0.00111293 -0.76125 -7.6482e-07 0.00111324 -0.7575 -7.81222e-07
0.00111355 -0.75375 -7.97724e-07 0.00111388 -0.75 -8.14235e-07 0.0011142 -0.74625 -8.30528e-07 0.00111452
-0.7425 -8.47246e-07 0.00111485 -0.73875 -8.64149e-07 0.00111519 -0.735 -8.81157e-07 0.00111553 -0.73125
-8.98175e-07 0.00111588 -0.7275 -9.14939e-07 0.00111622 -0.72375 -9.32169e-07 0.00111657 -0.72 -9.49585e-07
0.00111694 -0.71625 -9.67109e-07 0.00111731 -0.7125 -9.84644e-07 0.00111768 -0.70875 -1.00188e-06 0.00111805
-0.705 -1.01964e-06 0.00111843 -0.70125 -1.03759e-06 0.00111882 -0.6975 -1.05566e-06 0.00111922 -0.69375
-1.07374e-06 0.00111961 -0.69 -1.09177e-06 0.00112001 -0.68625 -1.11009e-06 0.00112042 -0.6825 -1.1286e-06
0.00112084 -0.67875 -1.14723e-06 0.00112127 -0.675 -1.16588e-06 0.0011217 -0.67125 -1.18449e-06 0.00112212
-0.6675 -1.2034e-06 0.00112256 -0.66375 -1.22253e-06 0.00112301 -0.66 -1.24179e-06 0.00112347 -0.65625
-1.26107e-06 0.00112393 -0.6525 -1.27988e-06 0.00112439 -0.64875 -1.29944e-06 0.00112487 -0.645 -1.31923e-06
0.00112535 -0.64125 -1.33916e-06 0.00112585 -0.6375 -1.3591e-06 0.00112634 -0.63375 -1.37901e-06 0.00112684
-0.63 -1.39924e-06 0.00112734 -0.62625 -1.41969e-06 0.00112787 -0.6225 -1.44029e-06 0.0011284 -0.61875
-1.4609e-06 0.00112893 -0.615 -1.48148e-06 0.00112946 -0.61125 -1.50241e-06 0.00113001 -0.6075 -1.52358e-06
0.00113057 -0.60375 -1.54491e-06 0.00113114 -0.6 -1.56625e-06 0.00113171 -0.59625 -1.58757e-06 0.00113228
-0.5925 -1.60902e-06 0.00113286 -0.58875 -1.63049e-06 0.00113343 -0.585 -1.65213e-06 0.00113401 -0.58125
-1.67403e-06 0.00113461 -0.5775 -1.69532e-06 0.00113522 -0.57375 -1.71758e-06 0.00113584 -0.57 -1.73987e-06
0.00113645 -0.56625 -1.76232e-06 0.00113708 -0.5625 -1.78504e-06 0.00113772 -0.55875 -1.80701e-06 0.00113838
-0.555 -1.83011e-06 0.00113904 -0.55125 -1.85323e-06 0.0011397 -0.5475 -1.87652e-06 0.00114037 -0.54375
-1.90008e-06 0.00114106 -0.54 -1.92386e-06 0.00114177 -0.53625 -1.94782e-06 0.00114248 -0.5325 -1.97181e-06
0.00114319 -0.52875 -1.99597e-06 0.00114391 -0.525 -2.02041e-06 0.00114465 -0.52125 -2.04376e-06 0.0011454
-0.5175 -2.06863e-06 0.00114616 -0.51375 -2.09355e-06 0.00114692 -0.51 -2.11865e-06 0.00114769 -0.50625
-2.14405e-06 0.00114848 -0.5025 -2.16813e-06 0.00114929 -0.49875 -2.19401e-06 0.0011501 -0.495 -2.21993e-06
0.00115091 -0.49125 -2.24606e-06 0.00115173 -0.4875 -2.27248e-06 0.00115257 -0.48375 -2.29923e-06 0.00115343
-0.48 -2.32619e-06 0.00115429 -0.47625 -2.3532e-06 0.00115515 -0.4725 -2.38042e-06 0.00115603 -0.46875
-2.40796e-06 0.00115692 -0.465 -2.43586e-06 0.00115783 -0.46125 -2.464e-06 0.00115874 -0.4575 -2.49219e-06
0.00115965 -0.45375 -2.52062e-06 0.00116057 -0.45 -2.5494e-06 0.0011615 -0.44625 -2.57859e-06 0.00116246
-0.4425 -2.60805e-06 0.00116341 -0.43875 -2.63757e-06 0.00116437 -0.435 -2.66735e-06 0.00116533 -0.43125
-2.69751e-06 0.0011663 -0.4275 -2.72502e-06 0.00116729 -0.42375 -2.75597e-06 0.00116828 -0.42 -2.78698e-06
0.00116927 -0.41625 -2.81827e-06 0.00117026 -0.4125 -2.84995e-06 0.00117127 -0.40875 -2.87844e-06 0.00117227
-0.405 -2.911e-06 0.00117328 -0.40125 -2.94363e-06 0.00117429 -0.3975 -2.97654e-06 0.0011753 -0.39375
-3.00985e-06 0.00117631 -0.39 -3.04378e-06 0.00117731 -0.38625 -3.07806e-06 0.00117832 -0.3825 -3.11243e-06
0.00117933 -0.37875 -3.14711e-06 0.00118032 -0.375 -3.18218e-06 0.0011813 -0.37125 -3.21796e-06 0.00118227
-0.3675 -3.25414e-06 0.00118323 -0.36375 -3.29042e-06 0.0011842 -0.36 -3.32704e-06 0.00118514 -0.35625
-3.3641e-06 0.00118604 -0.3525 -3.39558e-06 0.00118691 -0.34875 -3.43393e-06 0.00118778 -0.345 -3.47237e-06
0.00118865 -0.34125 -3.51117e-06 0.00118947 -0.3375 -3.55045e-06 0.00119023 -0.33375 -3.5907e-06 0.00119092
-0.33 -3.63145e-06 0.00119161 -0.32625 -3.67232e-06 0.00119231 -0.3225 -3.71355e-06 0.00119293 -0.31875
-3.75523e-06 0.00119344 -0.315 -3.79803e-06 0.00119386 -0.31125 -3.84138e-06 0.00119427 -0.3075 -3.88486e-06
0.00119468 -0.30375 -3.92872e-06 0.00119498 -0.3 -3.97305e-06 0.00119512 -0.29625 -4.00752e-06 0.0011951
-0.2925 -4.0541e-06 0.00119485 -0.28875 -4.10118e-06 0.00119436 -0.285 -4.14864e-06 0.00119371 -0.28125
-4.19622e-06 0.00119305 -0.2775 -4.23152e-06 0.00119239 -0.27375 -4.28119e-06 0.0011914 -0.27 -4.33132e-06
0.00119008 -0.26625 -4.38181e-06 0.00118851 -0.2625 -4.43242e-06 0.00118694 -0.25875 -4.46828e-06 0.00118538
-0.255 -4.52119e-06 0.00118333 -0.25125 -4.57448e-06 0.00118081 -0.2475 -4.62808e-06 0.00117795 -0.24375
-4.68177e-06 0.00117509 -0.24 -4.73715e-06 0.00117225 -0.23625 -4.79343e-06 0.00116877 -0.2325 -4.85e-06
0.00116466 -0.22875 -4.90678e-06 0.00116014 -0.225 -4.96363e-06 0.00115563 -0.22125 -4.99934e-06 0.00115115
-0.2175 -5.05849e-06 0.0011458 -0.21375 -5.11771e-06 0.0011396 -0.21 -5.17695e-06 0.00113289 -0.20625
-5.23622e-06 0.00112623 -0.2025 -5.27073e-06 0.00111961 -0.19875 -5.33348e-06 0.00111178 -0.195 -5.39604e-06
0.00110276 -0.19125 -5.45847e-06 0.00109314 -0.1875 -5.52087e-06 0.00108363 -0.18375 -5.585e-06 0.00107421
-0.18 -5.64895e-06 0.00106326 -0.17625 -5.71224e-06 0.00105081 -0.1725 -5.77518e-06 0.00103785 -0.16875
-5.83803e-06 0.00102507 -0.165 -5.90345e-06 0.00101246 -0.16125 -5.96805e-06 0.000998074 -0.1575 -6.0316e-06
0.000981946 -0.15375 -6.09474e-06 0.000965581 -0.15 -6.15773e-06 0.000949519 -0.14625 -6.22355e-06 0.000933746
-0.1425 -6.28692e-06 0.000915982 -0.13875 -6.34793e-06 0.000896282 -0.135 -6.4086e-06 0.000876846 -0.13125
-6.46913e-06 0.00085787 -0.1275 -6.48752e-06 0.000839329 -0.12375 -6.54818e-06 0.000818732 -0.12 -6.60714e-06
0.000796478 -0.11625 -6.666e-06 0.000774868 -0.1125 -6.72477e-06 0.000753879 -0.10875 -6.73839e-06 0.000733479
-0.105 -6.79447e-06 0.000711068 -0.10125 -6.84796e-06 0.000687695 -0.0975 -6.90152e-06 0.000665117 -0.0937499
-6.95517e-06 0.000643304 -0.0899999 -7.01102e-06 0.000622211 -0.0862499 -7.06522e-06 0.000599599 -0.0824999 -7.11935e-06
0.000576925 -0.0787499 -7.17358e-06 0.000555113 -0.0749999 -7.22793e-06 0.000534131 -0.0712499 -7.28384e-06 0.000513926
-0.0674999 -7.34301e-06 0.000493653 -0.0637499 -7.40294e-06 0.000474028 -0.0599999 -7.46283e-06 0.000455171 -0.0562499
-7.5227e-06 0.000437054 -0.0524999 -7.53324e-06 0.000419625 -0.0487498 -7.59173e-06 0.000404552 -0.0449998 -7.65024e-06
0.000390003 -0.0412498 -7.70876e-06 0.000375962 -0.0374998 -7.76731e-06 0.000362412 -0.0337498 -7.82598e-06 0.000349322
-0.0299998 -7.88305e-06 0.000340694 -0.0262498 -7.94023e-06 0.000332271 -0.0224998 -7.99752e-06 0.000324048 -0.0187499
-8.05493e-06 0.000316022 -0.0149999 -8.11143e-06 0.000308184 -0.0112499 -8.17373e-06 0.000304757 -0.0074999 -8.23617e-06
0.000301366 -0.00374991 -8.29877e-06 0.000298012 6.11926e-08 -8.36152e-06 0.000294693 0.00375005 -8.37973e-06 0.000291413
0.00750005 -8.43622e-06 0.00028818 0.01125 -8.49279e-06 0.000284983 0.015 -8.54944e-06 0.00028182 0.01875
-8.60619e-06 0.000278691 0.0225 -8.63463e-06 0.000277655 0.02625 -8.69808e-06 0.000276628 0.03 -8.76168e-06
0.000275605 0.03375 -8.82545e-06 0.000274586 0.0375 -8.88938e-06 0.00027357 0.04125 -8.92573e-06 0.000273083
0.045 -8.99304e-06 0.0002726 0.04875 -9.06052e-06 0.000272118 0.0525 -9.12818e-06 0.000271636 0.05625
-9.19601e-06 0.000271156 0.06 -9.27334e-06 0.000270958 0.06375 -9.34729e-06 0.000270763 0.0675 -9.42142e-06
0.000270568 0.07125 -9.49574e-06 0.000270374 0.075 -9.57025e-06 0.000270179 0.07875 -9.6277e-06 0.000270132
0.0825 -9.71064e-06 0.000270087 0.08625 -9.79379e-06 0.000270043 0.09 -9.87715e-06 0.000269998 0.09375
-9.96073e-06 0.000269954 0.0975 -1.00303e-05 0.000269959 0.10125 -1.0125e-05 0.000269966 0.105 -1.022e-05
0.000269974 0.10875 -1.03152e-05 0.000269981 0.1125 -1.04106e-05 0.000269989 0.11625 -1.05249e-05 0.000270008
[...]
POINT_DATA 19458
FIELD attributes 3
age 1 19458 float
0 7.30154e-05 0.000146034 0.000219057 0.000292084 0.000365114 0.000553994 0.000742875 0.000931756 0.00112065 0.00130958
0.00138464 0.00145969 0.00153475 0.0016098 0.00168487 0.00179877 0.00191268 0.0020266 0.00214054 0.00225448
0.00244353 0.00263258 0.00282163 0.0030107 0.0031998 0.00338895 0.00357809 0.00376723 0.0039564 0.0041456
0.00433484 0.00452409 0.00471333 0.0049026 0.00509191 0.00528126 0.00547065 0.0056601 0.00584956 0.00603903
0.00622849 0.00641801 0.00660757 0.00679716 0.00698675 0.00717634 0.00736598 0.00755567 0.00774539 0.00793512
0.00812484 0.00831462 0.00850445 0.00869431 0.00888418 0.00907404 0.00926397 0.00945395 0.00964397 0.00983399
0.010024 0.0102141 0.0104042 0.0105944 0.0107846 0.0109748 0.011165 0.0113554 0.0115457 0.0117361
0.0119264 0.0121169 0.0123074 0.012498 0.0126885 0.0128791 0.0130697 0.0132604 0.0134512 0.0136419
0.0138327 0.0140236 0.0142145 0.0144055 0.0145965 0.0147875 0.0149786 0.0151698 0.015361 0.0155522
0.0157435 0.0159348 0.0161263 0.0163178 0.0165093 0.0167008 0.0168924 0.0170841 0.0172759 0.0174677
0.0176595 0.0178514 0.0180435 0.0182356 0.0184277 0.0186198 0.0188121 0.0190045 0.0191969 0.0193894
0.0195818 0.0197745 0.0199672 0.0201601 0.0203529 0.0205457 0.0207386 0.0209314 0.0211244 0.0213175
0.0215108 0.021704 0.0218973 0.0220907 0.0222842 0.0224779 0.0226717 0.0228654 0.0230592 0.0232533
0.0234475 0.0236417 0.023836 0.0240303 0.0242249 0.0244197 0.0246145 0.0248093 0.0250042 0.0251994
0.0253947 0.0255901 0.0257855 0.0259811 0.0261769 0.026373 0.0265691 0.0267651 0.0269614 0.0271579
0.0273548 0.0275516 0.0277484 0.0279454 0.0281428 0.0283404 0.028538 0.0287357 0.0289336 0.0291318
0.0293303 0.0295289 0.0297275 0.0299263 0.0301255 0.030325 0.0305246 0.0307242 0.030924 0.0311243
0.0313249 0.0315256 0.0317263 0.0319273 0.0321287 0.0323306 0.0325325 0.0327344 0.0329367 0.0331394
0.0333426 0.0335458 0.0337491 0.0339527 0.0341568 0.0343615 0.0345661 0.0347708 0.0349759 0.0351815
0.0353877 0.0355939 0.0358001 0.0360067 0.0362139 0.0364217 0.0366301 0.0368391 0.0370485 0.0372579
0.0374673 0.0376773 0.0378879 0.0380989 0.0383098 0.0385207 0.0387322 0.0389442 0.0391566 0.0393689
0.0395812 0.0397939 0.040007 0.0402205 0.0404337 0.0406469 0.0408604 0.0410742 0.041288 0.0415017
0.0417152 0.0419288 0.0421424 0.0423558 0.0425689 0.0427818 0.0429943 0.0432064 0.0434181 0.0436294
0.0438404 0.0440506 0.0442598 0.0444684 0.0446767 0.0448845 0.0450909 0.0452958 0.0455001 0.0457041
0.0459076 0.046109 0.0463085 0.0465076 0.0467064 0.0469049 0.0471006 0.0472944 0.047488 0.0476815
0.0478747 0.0480645 0.048253 0.0484414 0.0486299 0.0488182 0.0490029 0.0491871 0.0493715 0.049556
0.0497406 0.0499218 0.0501032 0.0502848 0.0504667 0.0506487 0.0508286 0.0510087 0.051189 0.0513695
0.0515501 0.05173 0.05191 0.0520901 0.0522702 0.0524505 0.0526308 0.0528111 0.0529916 0.0531721
0.0533527 0.0535334 0.0537141 0.0538948 0.0540755 0.0542565 0.0544376 0.0546186 0.0547997 0.0549808
0.0551622 0.0553436 0.055525 0.0557064 0.0558878 0.0560696 0.0562513 0.056433 0.0566147 0.0567964
0.0569785 0.0571605 0.0573425 0.0575245 0.0577065 0.0578889 0.0580712 0.0582535 0.0584358 0.0586181
0.0588007 0.0589833 0.0591659 0.0593485 0.059531 0.059714 0.0598969 0.0600797 0.0602626 0.0604455
0.0606287 0.0608119 0.0609951 0.0611783 0.0613615 0.061545 0.0617285 0.061912 0.0620955 0.062279
0.0624628 0.0626466 0.0628304 0.0630142 0.063198 0.0633821 0.0635661 0.0637502 0.0639342 0.0641183
0.0643027 0.064487 0.0646713 0.0648556 0.0650399 0.0652245 0.065409 0.0655936 0.0657781 0.0659627
0.0661475 0.0663322 0.066517 0.0667018 0.0668865 0.0670715 0.0672567 0.0674418 0.0676269 0.067812
0.0679972 0.0681825 0.0683678 0.068553 0.0687383 0.0689237 0.0691091 0.0692945 0.0694799 0.0696654
0.0698508 0.0700364 0.0702219 0.0704075 0.070593 0.0707786 0.0709642 0.0711499 0.0713355 0.0715212
0.0717069 0.0718926 0.0720783 0.0722641 0.0724498 0.0726356 0.0728214 0.0730072 0.073193 0.0733788
0.0735646 0.0737504 0.0739363 0.0741221 0.0743079 0.0744938 0.0746797 0.0748655 0.0750514 0.0752372
0.0754231 0.075609 0.0757948 0.0759807 0.0761665 0.0763524 0.0765382 0.076724 0.0769099 0.0770957
0.0772815 0.0774673 0.0776531 0.0778389 0.0780247 0.0782105 0.0783962 0.078582 0.0787677 0.0789534
0.0791392 0.0793249 0.0795106 0.0796963 0.079882 0.0800677 0.0802534 0.0804391 0.0806248 0.0808105
0.0809962 0.0811819 0.0813676 0.0815533 0.081739 0.0819247 0.0821104 0.0822961 0.0824818 0.0826675
0.0828533 0.083039 0.0832248 0.0834105 0.0835963 0.0837821 0.0839679 0.0841537 0.0843395 0.0845253
0.0847112 0.0848971 0.085083 0.0852689 0.0854548 0.0856203 0.0857858 0.0859514 0.0861169 0.086283
0.0863033 0.0863236 0.086344 0.0863643 0.0863846 0.0865706 0.0867566 0.0869427 0.0871287 0.0873147
0.0875008 0.0876869 0.087873 0.0880591 0.0882452 0.0884313 0.0886175 0.0888036 0.0889898 0.0891759
0.0893621 0.0895483 0.0897345 0.0899207 0.0901069 0.0902931 0.0904794 0.0906656 0.0908518 0.0910381
0.0912243 0.0914106 0.0915969 0.0917832 0.0919694 0.0921557 0.0923421 0.0925284 0.0927147 0.092901
0.0930873 0.0932737 0.09346 0.0936464 0.0938327 0.0940191 0.0942055 0.0943919 0.0945782 0.0947646
0.094951 0.0951375 0.0953239 0.0955103 0.0956967 0.0958832 0.0960696 0.0962561 0.0964425 0.096629
0.0968155 0.097002 0.0971886 0.0973751 0.0975616 0.0977482 0.0979348 0.0981214 0.098308 0.0984946
0.0986812 0.0988679 0.0990546 0.0992412 0.0994279 0.0996146 0.0998013 0.099988 0.100175 0.100361
0.100548 0.100735 0.100921 0.101108 0.101295 0.101482 0.101668 0.101855 0.102042 0.102229
0.102415 0.102602 0.102789 0.102976 0.103163 0.10335 0.103538 0.103725 0.103912 0.104099
0.104287 0.104474 0.104662 0.10485 0.105038 0.105225 0.105413 0.105602 0.10579 0.105978
0.106166 0.106355 0.106544 0.106733 0.106922 0.107111 0.1073 0.107489 0.107679 0.107868
0.108058 0.108248 0.108438 0.108628 0.108818 0.109008 0.109198 0.109389 0.109579 0.10977
0.10996 0.110151 0.110342 0.110533 0.110724 0.110914 0.111105 0.111296 0.111488 0.111679
0.111869 0.112061 0.112252 0.112443 0.112634 0.112825 0.113016 0.113207 0.113398 0.113589
0.11378 0.113972 0.114163 0.114354 0.114545 0.114736 0.114927 0.115119 0.11531 0.115501
0.115692 0.115883 0.116074 0.116266 0.116457 0.116648 0.116839 0.11703 0.117221 0.117412
0.117603 0.117794 0.117985 0.118177 0.118368 0.118558 0.11875 0.118941 0.119132 0.119323
0.119514 0.119705 0.119896 0.120087 0.120278 0.120468 0.120659 0.12085 0.121041 0.121232
0.121423 0.121614 0.121805 0.121996 0.122187 0.122378 0.122569 0.12276 0.122951 0.123142
0.123332 0.123523 0.123714 0.123905 0.124096 0.124287 0.124478 0.124669 0.12486 0.12505
0.125241 0.125432 0.125623 0.125814 0.126005 0.126195 0.126386 0.126577 0.126768 0.126959
0.127149 0.12734 0.127531 0.127722 0.127913 0.128103 0.128294 0.128485 0.128676 0.128867
0.129057 0.129248 0.129439 0.129629 0.12982 0.130011 0.130201 0.130392 0.130583 0.130774
0.130964 0.131155 0.131345 0.131536 0.131727 0.131917 0.132108 0.132298 0.132489 0.13268
0.13287 0.13306 0.133251 0.133442 0.133632 0.133822 0.134013 0.134203 0.134394 0.134585
0.134774 0.134965 0.135155 0.135346 0.135537 0.135726 0.135917 0.136107 0.136298 0.136488
0.136678 0.136868 0.137059 0.137249 0.13744 0.137629 0.13782 0.13801 0.138201 0.138391
0.138581 0.138771 0.138962 0.139152 0.139343 0.139532 0.139722 0.139913 0.140103 0.140294
0.140483 0.140673 0.140864 0.141054 0.141245 0.141434 0.141624 0.141814 0.142005 0.142195
0.142384 0.142574 0.142764 0.142954 0.143144 0.143333 0.143523 0.143713 0.143903 0.144093
0.144282 0.144472 0.144662 0.144852 0.145042 0.145231 0.145421 0.14561 0.1458 0.14599
0.146179 0.146368 0.146558 0.146748 0.146937 0.147126 0.147315 0.147505 0.147694 0.147884
0.148073 0.148262 0.148451 0.148641 0.14883 0.149019 0.149208 0.149397 0.149587 0.149776
0.149964 0.150154 0.150343 0.150532 0.150721 0.15091 0.151099 0.151288 0.151477 0.151666
0.152043 0.15242 0.152797 0.153173 0.15355 0.154301 0.155053 0.155804 0.156555 0.157306
0.158807 0.160308 0.161809 0.163309 0.16481 0.16631 0.16781 0.169311 0.170811 0.172311
0.175311 0.178312 0.181312 0.184312 0.187312 0.193312 0.199312 0.205313 0.211313 0.217313
0.223313 0.229313 0.235313 0.241313 0.247313 0.253313 0.259313 0.265313 0.271313 0.277313
0.283313 0.289313 0.295313 0.301313 0.307314 0.313314 0.319314 0.325314 0.331314 0.337314
0.343314 0.349314 0.355314 0.361314 0.367314 0.373314 0.379314 0.385314 0.391314 0.397314
0.403314 0.403373 0 7.36887e-05 0.000147381 0.000221078 0.000294778 0.000368483 0.00044187 0.000515262
0.000588659 0.000662062 0.000733284 0.000851001 0.000968731 0.00108647 0.00120423 0.001322 0.0015128 0.00170363
0.0018945 0.0020854 0.00227634 0.00246731 0.00265832 0.00284937 0.00304046 0.00323159 0.00342275 0.00361395
0.0038052 0.00399648 0.00418781 0.00437917 0.00457058 0.00476204 0.00495353 0.00514507 0.00533666 0.00552829
0.00571996 0.00591169 0.00610346 0.00629527 0.00648714 0.00667905 0.00687102 0.00706304 0.0072551 0.00744723
0.0076394 0.00783163 0.00802391 0.00821624 0.00840864 0.00860109 0.0087936 0.00898616 0.00917879 0.00937148
0.00956423 0.00975704 0.00994991 0.0101428 0.0103359 0.0105289 0.0107221 0.0109153 0.0111085 0.0113019
0.0114953 0.0116888 0.0118823 0.012076 0.0122697 0.0124635 0.0126574 0.0128513 0.0130453 0.0132394
0.0134336 0.0136279 0.0138223 0.0140167 0.0142113 0.0144059 0.0146006 0.0147955 0.0149904 0.0151854
0.0153805 0.0155757 0.015771 0.0159664 0.016162 0.0163576 0.0165533 0.0167492 0.0169451 0.0171412
0.0173374 0.0175337 0.0177301 0.0179267 0.0181233 0.0183201 0.0185171 0.0187141 0.0189113 0.0191087
0.0193061 0.0195038 0.0197015 0.0198994 0.0200975 0.0202957 0.020494 0.0206926 0.0208912 0.0210901
0.0212891 0.0214883 0.0216876 0.0218871 0.0220868 0.0222867 0.0224868 0.0226871 0.0228875 0.0230882
0.023289 0.0234901 0.0236914 0.0238929 0.0240946 0.0242965 0.0244987 0.0247011 0.0249037 0.0251065
0.0253096 0.025513 0.0257166 0.0259205 0.0261247 0.0263291 0.0265338 0.0267388 0.026944 0.0271496
0.0273555 0.0275617 0.0277682 0.027975 0.0281821 0.0283896 0.0285975 0.0288057 0.0290142 0.0292231
0.0294324 0.0296421 0.0298522 0.0300627 0.0302736 0.0304849 0.0306967 0.0309088 0.0311215 0.0313346
0.0315481 0.0317622 0.0319768 0.0321918 0.0324074 0.0326235 0.0328402 0.0330574 0.0332752 0.0334936
0.0337125 0.0339321 0.0341523 0.0343732 0.0345947 0.0348169 0.0350398 0.0352634 0.0354877 0.0357127
0.0359385 0.0361651 0.0363925 0.0366207 0.0368497 0.0370797 0.0373105 0.0375422 0.0377748 0.0380083
0.0382428 0.0384783 0.0387148 0.0389523 0.0391909 0.0394306 0.0396714 0.0399133 0.0401563 0.0404004
0.0406457 0.0408923 0.04114 0.0413891 0.0416394 0.041891 0.0421439 0.0423982 0.0426537 0.0429103
0.0431681 0.0434272 0.043688 0.04395 0.0442132 0.0444775 0.0447429 0.0450102 0.045278 0.0455463
0.0458152 0.0460846 0.0463565 0.0464834 0.0466104 0.0467372 0.046864 0.0469438 0.0470979 0.0472518
0.0474056 0.0475592 0.0477138 0.0479846 0.0482536 0.0485208 0.0487861 0.0490545 0.0492002 0.0493449
0.0494883 0.0496307 0.0497405 0.0498612 0.0499812 0.0501003 0.0502187 0.0503373 0.0505846 0.0508269
0.0510642 0.0512967 0.0515258 0.0515411 0.0515562 0.0515714 0.0515865 0.0516017 0.0518085 0.0520108
0.0522087 0.0524023 0.0525898 0.052701 0.0528104 0.0529181 0.0530245 0.053158 0.0532327 0.0533066
0.0533799 0.0534526 0.0535242 0.0536985 0.0538692 0.0540365 0.0542005 0.0543581 0.0544962 0.0546328
0.0547679 0.0549015 0.0551241 0.0551383 0.0551525 0.0551666 0.0551808 0.0551968 0.0553288 0.0554603
0.0555912 0.0557215 0.0558506 0.0559935 0.0561365 0.0562797 0.056423 0.0565662 0.0567095 0.0568531
0.0569971 0.0571414 0.057286 0.0574311 0.0575765 0.0577222 0.0578684 0.0580148 0.0581616 0.0583087
0.0584562 0.0586039 0.058752 0.0589004 0.0590491 0.0591982 0.0593475 0.0594972 0.0596471 0.0597973
0.0599479 0.0600987 0.0602499 0.0604013 0.060553 0.0607051 0.0608575 0.0610101 0.0611631 0.0613164
0.0614701 0.061624 0.0617783 0.0619329 0.0620879 0.0622432 0.0623988 0.0625548 0.0627111 0.0628678
0.0630248 0.0631822 0.0633399 0.0634979 0.0636563 0.0638151 0.0639742 0.0641336 0.0642934 0.0644535
0.0646139 0.0647747 0.0649358 0.0650973 0.065259 0.0654211 0.0655835 0.0657462 0.0659092 0.0660726
0.0662362 0.0664001 0.0665643 0.0667288 0.0668936 0.0670587 0.067224 0.0673896 0.0675555 0.0677217
0.067888 0.0680547 0.0682216 0.0683887 0.0685561 0.0687237 0.0688916 0.0690597 0.069228 0.0693965
0.0695653 0.0697342 0.0699034 0.0700728 0.0702423 0.0704121 0.070582 0.0707522 0.0709225 0.071093
0.0712637 0.0714345 0.0716055 0.0717767 0.071948 0.0721195 0.0722911 0.0724629 0.0726348 0.0728068
0.072979 0.0731513 0.0733237 0.0734962 0.0736688 0.0738416 0.0740144 0.0741874 0.0743604 0.0745335
0.0747066 0.0748798 0.0750531 0.0752265 0.0753999 0.0755733 0.0757468 0.0759203 0.0760939 0.0762674
0.0764409 0.0766145 0.076788 0.0769616 0.0771351 0.0773086 0.0774821 0.0776556 0.077829 0.0780023
0.0781757 0.0783489 0.0785222 0.0786953 0.0788685 0.0790416 0.0792146 0.0793876 0.0795605 0.0797333
0.0799061 0.0800788 0.0802515 0.0804242 0.0805968 0.0807694 0.080942 0.0811146 0.0812872 0.0814597
0.0816323 0.0818049 0.0819775 0.0821502 0.0823229 0.0824957 0.0826685 0.0828414 0.0830144 0.0831875
0.0833606 0.0835338 0.0837071 0.0838806 0.0840541 0.0842278 0.0844015 0.0845754 0.0847494 0.0849235
0.0850977 0.085272 0.0854464 0.0854665 0.0854867 0.0855068 0.0855269 0.085547 0.0857015 0.0858561
0.0860108 0.0861656 0.0863205 0.0864957 0.0866709 0.0868463 0.0870217 0.0871973 0.087373 0.0875487
0.0877246 0.0879006 0.0880767 0.0882529 0.0884292 0.0886055 0.0887819 0.0889584 0.0891351 0.0893118
0.0894886 0.0896655 0.0898425 0.0900195 0.0901966 0.0903738 0.0905511 0.0907284 0.0909058 0.0910833
0.0912609 0.0914386 0.0916163 0.0917941 0.091972 0.0921499 0.0923279 0.092506 0.0926842 0.0928624
0.0930408 0.0932192 0.0933976 0.0935762 0.0937548 0.0939335 0.0941122 0.094291 0.09447 0.094649
0.0948281 0.0950073 0.0951865 0.0953659 0.0955453 0.0957247 0.0959043 0.096084 0.0962637 0.0964436
0.0966236 0.0968037 0.0969838 0.0971642 0.0973446 0.0975252 0.0977059 0.0978868 0.0980683 0.0982499
0.0984317 0.0986137 0.0987957 0.0989771 0.0991584 0.0993398 0.0995211 0.0997026 0.0998843 0.100066
0.100248 0.100429 0.100611 0.100793 0.100975 0.101157 0.101339 0.101522 0.101704 0.101887
0.10207 0.102254 0.102438 0.102622 0.102807 0.102992 0.103178 0.103365 0.103553 0.103741
0.10393 0.10412 0.104311 0.104504 0.104696 0.10489 0.105086 0.105282 0.10548 0.105679
0.10588 0.106083 0.106286 0.106492 0.106698 0.106906 0.107116 0.107327 0.107541 0.107756
0.107973 0.108192 0.108413 0.108636 0.10886 0.109086 0.109314 0.109544 0.109776 0.110011
0.110247 0.110485 0.110725 0.110967 0.11121 0.111455 0.111702 0.111951 0.112203 0.112455
0.11271 0.112966 0.113223 0.113483 0.113744 0.114006 0.11427 0.114535 0.114802 0.11507
0.115339 0.115609 0.115881 0.116154 0.116428 0.116703 0.11698 0.117257 0.117535 0.117814
0.118093 0.118374 0.118655 0.118937 0.11922 0.119503 0.119787 0.120072 0.120357 0.120642
0.120928 0.121214 0.121501 0.121788 0.122075 0.122363 0.122651 0.12294 0.123228 0.123516
0.123805 0.124094 0.124384 0.124673 0.124962 0.125251 0.125541 0.12583 0.12595 0.126071
0.126191 0.126311 0.126429 0.126599 0.126768 0.126937 0.127107 0.127276 0.127565 0.127854
0.128142 0.128431 0.12872 0.129007 0.129295 0.129584 0.129871 0.130159 0.130445 0.130732
0.131019 0.131305 0.131591 0.131875 0.132161 0.132446 0.132731 0.133015 0.133298 0.133581
0.133865 0.134148 0.134431 0.134711 0.134993 0.135276 0.135558 0.135839 0.136118 0.136398
0.136679 0.13696 0.137239 0.137516 0.137794 0.138073 0.138351 0.138629 0.138904 0.13918
0.139456 0.139732 0.140007 0.140269 0.140531 0.140792 0.141054 0.141341 0.141348 0.141355
0.141362 0.141368 0.141375 0.141648 0.14192 0.142192 0.142463 0.142734 0.143004 0.143275
0.143545 0.143815 0.144084 0.144352 0.144621 0.14489 0.145158 0.145426 0.145691 0.145958
0.146225 0.146492 0.146758 0.147021 0.147286 0.147552 0.147818 0.148082 0.148343 0.148606
0.148871 0.149135 0.149397 0.149657 0.149918 0.150181 0.150444 0.150705 0.150962 0.151222
0.151483 0.151744 0.152003 0.152259 0.152517 0.152777 0.153036 0.153293 0.153548 0.153805
0.154062 0.154319 0.154576 0.154829 0.155085 0.155341 0.155596 0.155851 0.156103 0.156358
0.156612 0.156866 0.157119 0.15737 0.157623 0.157875 0.158127 0.158379 0.15863 0.158881
0.159132 0.159382 0.159632 0.159835 0.160038 0.160241 0.160443 0.16063 0.160679 0.160729
0.160779 0.160828 0.160878 0.161126 0.161375 0.161623 0.161872 0.16212 0.162367 0.162615
0.162863 0.163111 0.163359 0.163605 0.163852 0.164099 0.164346 0.164592 0.164838 0.165083
0.165329 0.165574 0.165819 0.166063 0.166308 0.166552 0.166796 0.167039 0.167121 0.167204
0.167286 0.167368 0.167438 0.167601 0.167764 0.167926 0.168089 0.168251 0.168724 0.169202
0.169666 0.170111 0.170549 0.171362 0.172176 0.172988 0.173797 0.174602 0.176136 0.177673
0.179206 0.180735 0.182261 0.18377 0.185284 0.186797 0.188308 0.189819 0.192828 0.195839
0.198849 0.201858 0.204866 0.210871 0.216876 0.222882 0.228887 0.234892 0.240893 0.246896
0.252899 0.258902 0.264905 0.270905 0.276908 0.28291 0.288913 0.294915 0.300916 0.306918
0.31292 0.318922 0.324923 0.330924 0.336926 0.342927 0.348929 0.35493 0.360931 0.366932
0.372934 0.378935 0.384936 0.390937 0.396938 0.402939 0.40894 0.414941 0.420942 0.424112
0 7.36646e-05 0.000147334 0.000221008 0.000294687 0.00036837 0.000442533 0.000516701 0.000590873 0.000665051
0.000736967 0.000853869 0.000970784 0.00108771 0.00120465 0.0013216 0.00151234 0.00170311 0.00189392 0.00208476
0.00227563 0.00246654 0.00265749 0.00284847 0.00303949 0.00323055 0.00342165 0.00361278 0.00380395 0.00399517
0.00418642 0.00437771 0.00456905 0.00476042 0.00495184 0.00514331 0.00533481 0.00552636 0.00571796 0.0059096
0.00610128 0.00629301 0.00648479 0.00667662 0.0068685 0.00706042 0.0072524 0.00744443 0.0076365 0.00782864
0.00802082 0.00821305 0.00840535 0.00859769 0.0087901 0.00898256 0.00917508 0.00936765 0.00956029 0.00975299
0.00994575 0.0101386 0.0103314 0.0105244 0.0107174 0.0109105 0.0111036 0.0112969 0.0114901 0.0116835
0.0118769 0.0120704 0.012264 0.0124576 0.0126514 0.0128452 0.013039 0.013233 0.013427 0.0136212
0.0138154 0.0140096 0.014204 0.0143985 0.014593 0.0147877 0.0149824 0.0151773 0.0153722 0.0155672
0.0157623 0.0159575 0.0161529 0.0163483 0.0165438 0.0167395 0.0169352 0.0171311 0.017327 0.0175231
0.0177193 0.0179156 0.0181121 0.0183086 0.0185053 0.0187021 0.0188991 0.0190962 0.0192934 0.0194907
0.0196882 0.0198858 0.0200836 0.0202815 0.0204796 0.0206778 0.0208762 0.0210747 0.0212734 0.0214723
0.0216713 0.0218705 0.0220699 0.0222695 0.0224692 0.0226691 0.0228693 0.0230696 0.0232701 0.0234708
0.0236717 0.0238728 0.0240741 0.0242757 0.0244774 0.0246794 0.0248816 0.0250841 0.0252868 0.0254898
0.025693 0.0258964 0.0261002 0.0263042 0.0265084 0.026713 0.0269178 0.0271229 0.0273284 0.0275341
0.0277402 0.0279466 0.0281533 0.0283603 0.0285677 0.0287755 0.0289836 0.0291921 0.0294009 0.0296102
0.0298199 0.0298568 0.0298937 0.0299307 0.0299677 0.0300039 0.0301775 0.0303514 0.0305256 0.0307001
0.0308749 0.0310871 0.0312999 0.0315132 0.0317269 0.0319412 0.032156 0.0323714 0.0325874 0.0328039
0.0330211 0.0332388 0.0334571 0.0336762 0.0338959 0.0341163 0.0343374 0.0345592 0.0347819 0.0350053
0.0352296 0.0354546 0.0356805 0.0359073 0.0361351 0.0363638 0.0365935 0.0368242 0.0370561 0.0372891
0.0375231 0.0377583 0.0379948 0.0382326 0.0384717 0.0387122 0.038954 0.0391975 0.0394427 0.0396895
0.0399379 0.0401879 0.0404399 0.0406938 0.0409498 0.0412079 0.0414679 0.0417305 0.0419957 0.0422635
0.0425339 0.0428075 0.0430841 0.0433639 0.0436471 0.0439339 0.0442235 0.0445173 0.0448153 0.0451174
0.0454251 0.045735 0.0460494 0.0463685 0.0466921 0.0470259 0.047183 0.0473414 0.0475008 0.0476613
0.0477387 0.0479445 0.0481518 0.0483603 0.04857 0.0487881 0.0490883 0.0493907 0.0496946 0.0499976
0.0500884 0.0502079 0.0503271 0.050446 0.0505645 0.0506876 0.0508842 0.0510787 0.051271 0.051461
0.0515847 0.0517892 0.05199 0.0521874 0.0523812 0.0525866 0.0526129 0.0526392 0.0526654 0.0526916