# vtk DataFile Version 2.0
tracks
ASCII
DATASET POLYDATA
POINTS 19445 float
-1.001 1e-07 0.0011 -0.99955 9.94805e-08 0.00110002 -0.9981 9.89602e-08 0.00110004 -0.99665 9.84389e-08
0.00110007 -0.9952 9.79167e-08 0.0011001 -0.99375 9.73935e-08 0.00110014 -0.99 9.60191e-08 0.00110023
-0.98625 9.46625e-08 0.00110033 -0.9825 9.33056e-08 0.00110043 -0.97875 9.1943e-08 0.00110054 -0.975
9.05696e-08 0.00110067 -0.97125 8.91685e-08 0.00110082 -0.9675 8.7784e-08 0.00110097 -0.96375 8.6399e-08
0.00110112 -0.96 8.50095e-08 0.00110127 -0.95625 8.36113e-08 0.00110143 -0.9525 8.2197e-08 0.0011016
-0.94875 8.079e-08 0.00110177 -0.945 7.93825e-08 0.00110194 -0.94125 7.79828e-08 0.00110211 -0.9375
7.65988e-08 0.00110229 -0.93375 7.52158e-08 0.00110246 -0.93 7.38472e-08 0.00110264 -0.92625 7.24781e-08
0.00110282 -0.9225 7.11171e-08 0.001103 -0.91875 6.97724e-08 0.00110318 -0.915 6.84302e-08 0.00110336
-0.91125 6.71014e-08 0.00110354 -0.9075 6.57721e-08 0.00110373 -0.90375 6.44299e-08 0.00110391 -0.9
6.30631e-08 0.0011041 -0.89625 6.16592e-08 0.0011043 -0.8925 6.02311e-08 0.00110449 -0.88875 5.87661e-08
0.00110469 -0.885 5.72815e-08 0.0011049 -0.88125 5.57963e-08 0.0011051 -0.8775 5.43062e-08 0.0011053
-0.87375 5.2824e-08 0.00110551 -0.87 5.13449e-08 0.00110572 -0.86625 4.98673e-08 0.00110594 -0.8625
4.8389e-08 0.00110615 -0.85875 4.69065e-08 0.00110637 -0.855 4.54559e-08 0.00110659 -0.85125 4.40331e-08
0.00110682 -0.8475 4.26248e-08 0.00110705 -0.84375 4.12158e-08 0.00110727 -0.84 3.97971e-08 0.0011075
-0.83625 3.84232e-08 0.00110774 -0.8325 3.70847e-08 0.00110798 -0.82875 3.57646e-08 0.00110822 -0.825
3.44439e-08 0.00110847 -0.82125 3.31202e-08 0.00110871 -0.8175 3.1825e-08 0.00110896 -0.81375 3.05557e-08
0.00110922 -0.81 2.92998e-08 0.00110948 -0.80625 2.80432e-08 0.00110974 -0.8025 2.67843e-08 0.00111
-0.79875 2.5553e-08 0.00111027 -0.795 2.43471e-08 0.00111054 -0.79125 2.31546e-08 0.00111082 -0.7875
2.19614e-08 0.0011111 -0.78375 2.07622e-08 0.00111138 -0.78 1.9615e-08 0.00111167 -0.77625 1.85141e-08
0.00111196 -0.7725 1.74378e-08 0.00111226 -0.76875 1.6361e-08 0.00111256 -0.765 1.52792e-08 0.00111286
-0.76125 1.42582e-08 0.00111316 -0.7575 1.32933e-08 0.00111348 -0.75375 1.23586e-08 0.0011138 -0.75
1.14234e-08 0.00111412 -0.74625 1.0487e-08 0.00111444 -0.7425 9.61328e-09 0.00111477 -0.73875 8.80148e-09
0.00111511 -0.735 8.02317e-09 0.00111545 -0.73125 7.24438e-09 0.00111579 -0.7275 6.46473e-09 0.00111614
-0.72375 5.75369e-09 0.00111649 -0.72 5.11083e-09 0.00111685 -0.71625 4.50517e-09 0.00111722 -0.7125
3.89912e-09 0.00111759 -0.70875 3.29247e-09 0.00111796 -0.705 2.75889e-09 0.00111834 -0.70125 2.29819e-09
0.00111873 -0.6975 1.87764e-09 0.00111913 -0.69375 1.45679e-09 0.00111952 -0.691159 1.16544e-09 0.0011198
-0.688567 9.12762e-10 0.00112008 -0.685976 6.98455e-10 0.00112036 -0.683384 5.2255e-10 0.00112065 -0.675
4.03669e-11 0.00112161 -0.67486 3.22935e-11 0.00112162 -0.67472 2.43366e-11 0.00112164 -0.67458 1.64955e-11
0.00112165 -0.674439 8.77041e-12 0.00112167 -0.674278 1.15426e-17 0.00112169 -0.670672 -1.92338e-10 0.0011221
-0.667067 -3.07903e-10 0.00112252 -0.663461 -3.46583e-10 0.00112296 -0.659856 -3.49556e-10 0.0011234 -0.65625
-3.52531e-10 0.00112384 -0.6525 -3.55493e-10 0.0011243 -0.64875 -2.887e-10 0.00112477 -0.645 -1.51888e-10
0.00112526 -0.641775 1.05402e-17 0.00112568 -0.6375 2.01505e-10 0.00112625 -0.63375 3.78348e-10 0.00112674
-0.63 6.26236e-10 0.00112725 -0.62625 9.4521e-10 0.00112777 -0.6225 1.30509e-09 0.0011283 -0.61875
1.6653e-09 0.00112883 -0.615 2.02511e-09 0.00112936 -0.61125 2.46349e-09 0.00112991 -0.6075 2.97981e-09
0.00113047 -0.60375 3.54154e-09 0.00113104 -0.6 4.10383e-09 0.00113161 -0.59625 4.66472e-09 0.00113218
-0.5925 5.22832e-09 0.00113275 -0.58875 5.79249e-09 0.00113332 -0.585 6.40126e-09 0.0011339 -0.58125
7.08596e-09 0.0011345 -0.5775 7.84661e-09 0.00113511 -0.57375 8.60859e-09 0.00113573 -0.57 9.37143e-09
0.00113634 -0.56625 1.01809e-08 0.00113696 -0.5625 1.10686e-08 0.00113761 -0.55875 1.20346e-08 0.00113826
-0.555 1.30026e-08 0.00113892 -0.55125 1.39717e-08 0.00113958 -0.5475 1.49943e-08 0.00114025 -0.54375
1.61056e-08 0.00114094 -0.54 1.72958e-08 0.00114165 -0.53625 1.84985e-08 0.00114236 -0.5325 1.97027e-08
0.00114306 -0.52875 2.09703e-08 0.00114378 -0.525 2.23416e-08 0.00114452 -0.52125 2.38166e-08 0.00114528
-0.5175 2.52954e-08 0.00114603 -0.51375 2.67763e-08 0.00114679 -0.51 2.83253e-08 0.00114756 -0.50625
2.99843e-08 0.00114835 -0.5025 3.17534e-08 0.00114916 -0.49875 3.35275e-08 0.00114996 -0.495 3.53042e-08
0.00115077 -0.49125 3.71548e-08 0.00115159 -0.4875 3.91221e-08 0.00115243 -0.48375 4.11745e-08 0.00115329
-0.48 4.32657e-08 0.00115415 -0.47625 4.53605e-08 0.00115501 -0.4725 4.75386e-08 0.00115588 -0.46875
4.98468e-08 0.00115677 -0.465 5.22402e-08 0.00115767 -0.46125 5.4688e-08 0.00115858 -0.4575 5.71403e-08
0.00115949 -0.45375 5.96858e-08 0.00116041 -0.45 6.23741e-08 0.00116134 -0.44625 6.51428e-08 0.00116229
-0.4425 6.79869e-08 0.00116324 -0.43875 7.08365e-08 0.00116419 -0.435 7.37902e-08 0.00116515 -0.43125
7.69004e-08 0.00116613 -0.4275 8.01714e-08 0.00116711 -0.42375 8.34557e-08 0.0011681 -0.42 8.67469e-08
0.00116908 -0.41625 9.01604e-08 0.00117007 -0.4125 9.37549e-08 0.00117107 -0.40875 9.75366e-08 0.00117208
-0.405 1.01335e-07 0.00117308 -0.40125 1.05142e-07 0.00117409 -0.3975 1.091e-07 0.00117509 -0.39375
1.13276e-07 0.0011761 -0.39 1.17513e-07 0.0011771 -0.38625 1.21939e-07 0.0011781 -0.3825 1.26376e-07
0.0011791 -0.37875 1.30999e-07 0.00118009 -0.375 1.35889e-07 0.00118107 -0.37125 1.40832e-07 0.00118203
-0.3675 1.4603e-07 0.00118299 -0.36375 1.51241e-07 0.00118395 -0.36 1.56671e-07 0.00118489 -0.35625
1.62411e-07 0.00118578 -0.3525 1.6848e-07 0.00118665 -0.34875 1.74583e-07 0.00118751 -0.345 1.80703e-07
0.00118837 -0.34125 1.87075e-07 0.00118919 -0.3375 1.93797e-07 0.00118994 -0.33375 2.00479e-07 0.00119063
-0.33 2.07622e-07 0.00119132 -0.32625 2.14785e-07 0.00119201 -0.3225 2.22243e-07 0.00119263 -0.31875
2.30106e-07 0.00119314 -0.315 2.37849e-07 0.00119355 -0.31125 2.46208e-07 0.00119396 -0.3075 2.54591e-07
0.00119437 -0.30375 2.63338e-07 0.00119467 -0.3 2.72579e-07 0.00119481 -0.29625 2.81608e-07 0.00119479
-0.2925 2.91974e-07 0.00119454 -0.28875 3.02884e-07 0.00119406 -0.285 3.14199e-07 0.0011934 -0.28125
3.2554e-07 0.00119275 -0.2775 3.36989e-07 0.0011921 -0.27375 3.49113e-07 0.00119111 -0.27 3.61874e-07
0.00118979 -0.26625 3.751e-07 0.00118823 -0.2625 3.88353e-07 0.00118668 -0.25875 4.01746e-07 0.00118512
-0.255 4.15958e-07 0.00118309 -0.25125 4.30943e-07 0.00118058 -0.2475 4.46473e-07 0.00117774 -0.24375
4.62023e-07 0.0011749 -0.24 4.75847e-07 0.00117207 -0.23625 4.9251e-07 0.00116862 -0.2325 5.10057e-07
0.00116453 -0.22875 5.28192e-07 0.00116004 -0.225 5.46332e-07 0.00115556 -0.22125 5.64686e-07 0.0011511
-0.2175 5.84383e-07 0.00114579 -0.21375 6.05378e-07 0.00113963 -0.21 6.27149e-07 0.00113296 -0.20625
6.48894e-07 0.00112634 -0.2025 6.70921e-07 0.00111976 -0.19875 6.94601e-07 0.00111198 -0.195 7.1977e-07
0.00110301 -0.19125 7.4568e-07 0.00109346 -0.1875 7.71509e-07 0.001084 -0.18375 7.93086e-07 0.00107463
-0.18 8.20676e-07 0.00106375 -0.17625 8.49793e-07 0.00105137 -0.1725 8.79434e-07 0.00103847 -0.16875
9.08895e-07 0.00102575 -0.165 9.3295e-07 0.00101321 -0.16125 9.64346e-07 0.000998898 -0.1575 9.97393e-07
0.000982852 -0.15375 1.03065e-06 0.000966564 -0.15 1.06361e-06 0.000950576 -0.14625 1.08972e-06 0.00093488
-0.1425 1.12557e-06 0.000917194 -0.13875 1.16409e-06 0.000897581 -0.135 1.20239e-06 0.000878223 -0.13125
1.2402e-06 0.000859318 -0.1275 1.2781e-06 0.000840854 -0.12375 1.318e-06 0.000820333 -0.12 1.35955e-06
0.000798154 -0.11625 1.40043e-06 0.000776612 -0.1125 1.44067e-06 0.000755687 -0.10875 1.48084e-06 0.000735356
-0.105 1.52491e-06 0.000713009 -0.10125 1.57122e-06 0.000689694 -0.0975 1.61661e-06 0.000667167 -0.0937499
1.66113e-06 0.000645399 -0.0899999 1.69357e-06 0.000624359 -0.0862499 1.73788e-06 0.00060179 -0.0824999 1.78179e-06
0.000579147 -0.0787499 1.82478e-06 0.000557361 -0.0749999 1.86688e-06 0.000536399 -0.0712499 1.89559e-06 0.000516224
-0.0674999 1.93253e-06 0.000495947 -0.0637499 1.96821e-06 0.000476308 -0.0599999 2.00323e-06 0.000457434 -0.0562499
2.03762e-06 0.000439296 -0.0524999 2.07156e-06 0.000421861 -0.0487498 2.10571e-06 0.000406761 -0.0449998 2.13935e-06
0.000392183 -0.0412498 2.17249e-06 0.000378112 -0.0374998 2.20516e-06 0.000364532 -0.0337498 2.22371e-06 0.000351421
-0.0299998 2.25678e-06 0.000342721 -0.0262498 2.28958e-06 0.000334228 -0.0224998 2.32212e-06 0.000325937 -0.0187499
2.3544e-06 0.000317845 -0.0149999 2.37268e-06 0.000309945 -0.0112499 2.39919e-06 0.00030642 -0.0074999 2.4257e-06
0.000302934 -0.00374991 2.4522e-06 0.000299486 6.11907e-08 2.47871e-06 0.000296075 0.00375005 2.50456e-06 0.000292702
0.00750005 2.52911e-06 0.000289371 0.01125 2.55363e-06 0.000286076 0.015 2.57813e-06 0.000282817 0.01875
2.6026e-06 0.000279594 0.0225 2.62113e-06 0.000278496 0.02625 2.63857e-06 0.000277403 0.03 2.65606e-06
0.000276315 0.03375 2.6736e-06 0.000275231 0.0375 2.69118e-06 0.000274151 0.04125 2.70717e-06 0.000273626
0.045 2.72189e-06 0.000273103 0.04875 2.73665e-06 0.000272581 0.0525 2.75145e-06 0.00027206 0.05625
2.76629e-06 0.00027154 0.06 2.7722e-06 0.000271314 0.06375 2.78644e-06 0.000271088 0.0675 2.80072e-06
0.000270862 0.07125 2.81504e-06 0.000270637 0.075 2.82939e-06 0.000270412 0.07875 2.84572e-06 0.000270335
0.0825 2.86107e-06 0.000270259 0.08625 2.87647e-06 0.000270182 0.09 2.8919e-06 0.000270106 0.09375
2.90738e-06 0.00027003 0.0975 2.92636e-06 0.000270005 0.10125 2.94462e-06 0.000269981 0.105 2.96292e-06
0.000269958 0.10875 2.98127e-06 0.000269934 0.1125 2.99967e-06 0.00026991 0.11625 3.01317e-06 0.0002699
0.12 3.03445e-06 0.00026989 0.12375 3.05578e-06 0.00026988 0.1275 3.07717e-06 0.00026987 0.13125
3.09861e-06 0.000269861 0.135 3.11343e-06 0.000269849 0.13875 3.13654e-06 0.000269837 0.1425 3.15971e-06
[...]
POINT_DATA 19445
FIELD attributes 3
age 1 19445 float
0 7.30178e-05 0.000146039 0.000219065 0.000292093 0.000365126 0.000554013 0.0007429 0.000931787 0.00112069 0.00130963
0.0014986 0.00168756 0.00187653 0.00206552 0.00225454 0.0024436 0.00263265 0.00282171 0.00301078 0.0031999
0.00338904 0.00357819 0.00376734 0.00395651 0.00414572 0.00433497 0.00452422 0.00471347 0.00490275 0.00509206
0.00528142 0.00547082 0.00566027 0.00584974 0.00603921 0.00622868 0.00641821 0.00660778 0.00679737 0.00698697
0.00717656 0.00736621 0.00755591 0.00774564 0.00793537 0.00812509 0.00831488 0.00850472 0.00869459 0.00888446
0.00907433 0.00926426 0.00945425 0.00964428 0.0098343 0.0100243 0.0102144 0.0104046 0.0105948 0.010785
0.0109751 0.0111654 0.0113557 0.0115461 0.0117365 0.0119268 0.0121173 0.0123078 0.0124984 0.0126889
0.0128795 0.0130701 0.0132609 0.0134516 0.0136424 0.0138332 0.014024 0.014215 0.014406 0.014597
0.014788 0.0149791 0.0151703 0.0153615 0.0155528 0.0156849 0.0158171 0.0159494 0.0160817 0.0165099
0.016517 0.0165242 0.0165314 0.0165385 0.0165468 0.0167309 0.0169152 0.0170996 0.017284 0.0174684
0.0176602 0.0178521 0.0180442 0.0182094 0.0184284 0.0186206 0.0188128 0.0190052 0.0191977 0.0193902
0.0195826 0.0197753 0.019968 0.0201609 0.0203537 0.0205466 0.0207394 0.0209323 0.0211253 0.0213184
0.0215117 0.0217049 0.0218982 0.0220916 0.0222852 0.0224789 0.0226726 0.0228664 0.0230602 0.0232543
0.0234485 0.0236427 0.023837 0.0240314 0.0242259 0.0244207 0.0246155 0.0248103 0.0250053 0.0252004
0.0253959 0.0255913 0.0257867 0.0259822 0.0261781 0.0263742 0.0265702 0.0267663 0.0269626 0.0271591
0.027356 0.0275528 0.0277496 0.0279467 0.028144 0.0283417 0.0285393 0.028737 0.0289349 0.0291331
0.0293317 0.0295302 0.0297288 0.0299276 0.0301268 0.0303264 0.030526 0.0307255 0.0309254 0.0311257
0.0313263 0.031527 0.0317277 0.0319287 0.0321302 0.0323321 0.032534 0.0327359 0.0329381 0.0331408
0.0333441 0.0335473 0.0337505 0.0339541 0.0341583 0.0343629 0.0345676 0.0347722 0.0349773 0.0351829
0.0353891 0.0355953 0.0358015 0.0360081 0.0362153 0.0364231 0.0366315 0.0368405 0.0370499 0.0372593
0.0374687 0.0376786 0.0378892 0.0381002 0.0383111 0.038522 0.0387335 0.0389455 0.0391579 0.0393702
0.0395824 0.0397951 0.0400083 0.0402216 0.0404349 0.0406481 0.0408616 0.0410753 0.0412892 0.0415029
0.0417164 0.0419299 0.0421435 0.0423569 0.0425701 0.042783 0.0429955 0.0432076 0.0434193 0.0436307
0.0438417 0.0440519 0.0442611 0.0444698 0.0446781 0.044886 0.0450925 0.0452974 0.0455018 0.0457058
0.0459095 0.046111 0.0463105 0.0465097 0.0467086 0.0469072 0.047103 0.0472969 0.0474906 0.0476841
0.0478774 0.0480674 0.048256 0.0484445 0.048633 0.0488215 0.0490063 0.0491906 0.049375 0.0495596
0.0497442 0.0499255 0.050107 0.0502887 0.0504706 0.0506527 0.0508327 0.0510129 0.0511932 0.0513737
0.0515544 0.0517344 0.0519144 0.0520945 0.0522747 0.052455 0.0526354 0.0528158 0.0529963 0.0531769
0.0533576 0.0535383 0.053719 0.0538998 0.0540806 0.0542617 0.0544428 0.0546239 0.054805 0.0549861
0.0551676 0.055349 0.0555305 0.0557119 0.0558934 0.0560752 0.056257 0.0564387 0.0566205 0.0568023
0.0569844 0.0571664 0.0573485 0.0575306 0.0577126 0.057895 0.0580774 0.0582597 0.0584421 0.0586244
0.0588071 0.0589897 0.0591724 0.059355 0.0595377 0.0597206 0.0599036 0.0600865 0.0602695 0.0604524
0.0606357 0.0608189 0.0610022 0.0611854 0.0613687 0.0615522 0.0617358 0.0619194 0.0621029 0.0622865
0.0624703 0.0626542 0.062838 0.0630219 0.0632057 0.0633898 0.0635739 0.0637581 0.0639422 0.0641263
0.0643107 0.0644951 0.0646794 0.0648638 0.0650482 0.0652328 0.0654174 0.065602 0.0657866 0.0659712
0.066156 0.0663408 0.0665256 0.0667104 0.0668952 0.0669432 0.0669911 0.067039 0.067087 0.0671181
0.0672587 0.0673993 0.0675398 0.0676804 0.067821 0.0680062 0.0681915 0.0683768 0.0685621 0.0687474
0.0689327 0.0691181 0.0693036 0.069489 0.0696745 0.0698599 0.0700455 0.070231 0.0704166 0.0706022
0.0707877 0.0709734 0.071159 0.0713447 0.0715304 0.071716 0.0719018 0.0720875 0.0722732 0.072459
0.0726447 0.0728305 0.0730163 0.0732021 0.0733879 0.0735738 0.0737596 0.0739454 0.0741313 0.0743171
0.074503 0.0746889 0.0748747 0.0750606 0.0752465 0.0754323 0.0756182 0.0758041 0.0759899 0.0761758
0.0763617 0.0765475 0.0767334 0.0769192 0.0771051 0.0772909 0.0774767 0.0776626 0.0778484 0.0780342
0.07822 0.0784058 0.0785915 0.0787773 0.0789631 0.0791489 0.0793346 0.0795203 0.0797061 0.0798918
0.0800775 0.0802633 0.080449 0.0806347 0.0808204 0.0810061 0.0811919 0.0813776 0.0815633 0.081749
0.0819348 0.0821205 0.0823062 0.0824919 0.0826777 0.0828635 0.0830492 0.083235 0.0834207 0.0836065
0.0837923 0.0839782 0.084164 0.0843498 0.0845356 0.0847215 0.0849074 0.0850933 0.0852792 0.0854651
0.0856511 0.085837 0.086023 0.0862089 0.0863949 0.0865809 0.086767 0.086953 0.087139 0.0873251
0.0875112 0.0876973 0.0878834 0.0880695 0.0882556 0.0884417 0.0886279 0.0888141 0.0890002 0.0891864
0.0893726 0.0895589 0.0897451 0.0899313 0.0901175 0.0903038 0.0904901 0.0906764 0.0908627 0.0910489
0.0912353 0.0914216 0.091608 0.0917943 0.0919806 0.092167 0.0923534 0.0925398 0.0927262 0.0929126
0.0930991 0.0932855 0.093472 0.0936584 0.0938449 0.0940314 0.0942179 0.0944044 0.0945909 0.0947774
0.094964 0.0951506 0.0953372 0.0955237 0.0957103 0.095897 0.0960836 0.0962703 0.0964569 0.0966436
0.0968303 0.0970172 0.097204 0.0973909 0.0975777 0.0977645 0.0979515 0.0981385 0.0983254 0.0985124
0.0986993 0.0988864 0.0990734 0.0992605 0.0994475 0.0996346 0.0998216 0.100009 0.100196 0.100383
0.10057 0.100757 0.100943 0.10113 0.101317 0.101504 0.101691 0.101878 0.102065 0.102251
0.102438 0.102625 0.102811 0.102998 0.103185 0.103371 0.103558 0.103745 0.103931 0.104118
0.104305 0.104491 0.104678 0.104864 0.105051 0.105238 0.105424 0.105611 0.105798 0.105985
0.106171 0.106358 0.106545 0.106732 0.106919 0.107106 0.107293 0.10748 0.107668 0.107855
0.108042 0.108229 0.108417 0.108604 0.108792 0.108979 0.109167 0.109355 0.109543 0.109731
0.109878 0.110025 0.110172 0.11032 0.11043 0.110479 0.110527 0.110576 0.110624 0.110673
0.110861 0.11105 0.111239 0.111428 0.111617 0.111806 0.111995 0.112184 0.112373 0.112562
0.112752 0.112941 0.113131 0.113321 0.11351 0.1137 0.11389 0.114081 0.114271 0.114461
0.114652 0.114842 0.115033 0.115224 0.115414 0.115605 0.115796 0.115988 0.116179 0.11637
0.116561 0.116752 0.116944 0.117135 0.117327 0.117518 0.11771 0.117902 0.118093 0.118285
0.118477 0.118669 0.118861 0.119052 0.119244 0.119436 0.119628 0.11982 0.120012 0.120204
0.120396 0.120588 0.12078 0.120972 0.121164 0.121356 0.121548 0.121741 0.121933 0.122125
0.122316 0.122508 0.1227 0.122892 0.123084 0.123276 0.123468 0.123659 0.123851 0.124043
0.124234 0.124426 0.124618 0.124809 0.125001 0.125192 0.125383 0.125575 0.125766 0.125957
0.126148 0.126339 0.12653 0.126721 0.126912 0.127103 0.127293 0.127484 0.127674 0.127865
0.128055 0.128246 0.128436 0.128626 0.128817 0.129007 0.129197 0.129387 0.129577 0.129767
0.129957 0.130146 0.130336 0.130526 0.130716 0.130905 0.131095 0.131284 0.131474 0.131664
0.131853 0.132042 0.132232 0.132421 0.132611 0.1328 0.132989 0.133178 0.133367 0.133557
0.133746 0.133935 0.134124 0.134313 0.134502 0.134691 0.13488 0.135069 0.135258 0.135447
0.135636 0.135825 0.136014 0.136203 0.136392 0.13658 0.136769 0.136958 0.137147 0.137336
0.137524 0.137713 0.137902 0.138091 0.138279 0.138468 0.138657 0.138845 0.139034 0.139223
0.139411 0.1396 0.139789 0.139977 0.140166 0.140354 0.140543 0.140732 0.14092 0.141109
0.141297 0.141486 0.141674 0.141863 0.142052 0.14224 0.142429 0.142617 0.142806 0.142994
0.143183 0.143371 0.14356 0.143748 0.143937 0.144125 0.144313 0.144502 0.14469 0.144879
0.145067 0.145256 0.145444 0.145633 0.145821 0.146009 0.146198 0.146386 0.146575 0.146763
0.146952 0.14714 0.147328 0.147517 0.147705 0.147894 0.148082 0.14827 0.148459 0.148647
0.148836 0.149024 0.149212 0.149401 0.149589 0.149777 0.149966 0.150154 0.150343 0.150531
0.150719 0.150908 0.151096 0.151284 0.151473 0.151849 0.152226 0.152602 0.152979 0.153355
0.154106 0.154858 0.155609 0.156361 0.157112 0.158613 0.160114 0.161615 0.163115 0.164616
0.166116 0.167617 0.169118 0.170618 0.172119 0.17512 0.17812 0.181121 0.184121 0.187122
0.193122 0.199123 0.205123 0.211123 0.217123 0.223123 0.229124 0.235124 0.241124 0.247124
0.253124 0.259124 0.265125 0.271125 0.277125 0.283125 0.289125 0.295125 0.301125 0.307126
0.313126 0.319126 0.325126 0.331126 0.337126 0.343126 0.349126 0.355126 0.361126 0.367127
0.373127 0.379127 0.385127 0.391127 0.397127 0.403127 0.404665 0 7.36945e-05 0.000147393
0.000221095 0.000294802 0.000368512 0.000559155 0.000749831 0.000940542 0.00113129 0.00132206 0.00151288 0.00170373
0.00189461 0.00208553 0.00227648 0.00246747 0.0026585 0.00284957 0.00304067 0.00323181 0.00342299 0.00361421
0.00380547 0.00399678 0.00418812 0.0043795 0.00457093 0.0047624 0.00495391 0.00514547 0.00520449 0.00526351
0.00532254 0.00538157 0.00544112 0.00557365 0.0057062 0.00583878 0.00597138 0.006104 0.00629583 0.00648772
0.00667965 0.00687164 0.00706367 0.00725576 0.0074479 0.00764009 0.00783234 0.00802464 0.008217 0.00840941
0.00860189 0.00879442 0.008987 0.00917965 0.00937236 0.00956513 0.00975797 0.00995086 0.0101438 0.0103368
0.0105299 0.0107231 0.0109163 0.0111096 0.011303 0.0114964 0.01169 0.0118835 0.0120772 0.0122709
0.0124648 0.0126587 0.0128526 0.0130467 0.0132408 0.013435 0.0136294 0.0138238 0.0140182 0.0142128
0.0144075 0.0146022 0.0147971 0.014992 0.0151871 0.0153822 0.0155775 0.0157728 0.0159682 0.0161638
0.0163595 0.0165552 0.0167511 0.0169471 0.0171432 0.0173394 0.0175358 0.0177322 0.0179288 0.0181255
0.0183224 0.0185194 0.0187165 0.0189137 0.0191111 0.0193086 0.0195063 0.0197041 0.019902 0.0201001
0.0202983 0.0204967 0.0206953 0.020894 0.0210929 0.021292 0.0214912 0.0216906 0.0218902 0.0220899
0.0222899 0.02249 0.0226903 0.0228908 0.0230915 0.0232925 0.0234936 0.0236949 0.0238965 0.0240982
0.0243002 0.0245024 0.0247049 0.0248543 0.0250039 0.0251536 0.0253034 0.0254255 0.0254845 0.0255436
0.0256027 0.0256619 0.025721 0.025925 0.0261292 0.0263337 0.0265385 0.0267435 0.0269489 0.0271545
0.0273604 0.0275667 0.0277733 0.0279802 0.0281874 0.028395 0.0286029 0.0288112 0.0290198 0.0292288
0.0294382 0.0296479 0.0298581 0.0300687 0.0302796 0.0304911 0.0307029 0.0309152 0.0311279 0.0313411
0.0315547 0.0317689 0.0319835 0.0321987 0.0324144 0.0326306 0.0328474 0.0330647 0.0332825 0.033501
0.0337201 0.0339398 0.0341601 0.034381 0.0346026 0.0348249 0.0350479 0.0352716 0.035496 0.0357212
0.0359471 0.0361738 0.0364013 0.0366296 0.0368588 0.0370888 0.0373198 0.0375516 0.0377842 0.0380179
0.0382525 0.0384881 0.0387247 0.0389623 0.039201 0.0394408 0.0396818 0.0399238 0.0401669 0.0404112
0.0406566 0.0409032 0.0411511 0.0414003 0.0416507 0.0419025 0.0421555 0.0424099 0.0426655 0.0429223
0.0431802 0.0434394 0.0437004 0.0439625 0.0442258 0.0444903 0.0447558 0.0450232 0.0452912 0.0455597
0.0458287 0.0460983 0.0463703 0.0465022 0.0466341 0.0467659 0.0468976 0.0469788 0.0471289 0.0472788
0.0474286 0.0475782 0.0477287 0.0479998 0.048269 0.0485365 0.0488021 0.0490708 0.0492216 0.0493711
0.0495195 0.0496666 0.0497791 0.0498956 0.0500114 0.0501265 0.0502409 0.0503554 0.0506032 0.0508458
0.0510835 0.0513165 0.0515461 0.0515648 0.0515835 0.0516022 0.0516208 0.0516395 0.0518428 0.0520418
0.0522366 0.0524273 0.0526121 0.052727 0.0528402 0.0529516 0.0530616 0.0532003 0.0532713 0.0533417
0.0534115 0.0534808 0.053549 0.0537239 0.0538951 0.0540629 0.0542275 0.0543857 0.0545281 0.0546689
0.0548082 0.0549459 0.055154 0.0551741 0.0551941 0.0552142 0.0552342 0.0552581 0.0553841 0.0555097
0.0556348 0.0557593 0.0558827 0.0560262 0.0561697 0.0563134 0.0564573 0.056601 0.0567448 0.056889
0.0570335 0.0571783 0.0573235 0.0574691 0.057615 0.0577614 0.0579081 0.0580551 0.0582025 0.0583502
0.0584982 0.0586466 0.0587953 0.0588735 0.0589519 0.0590303 0.0591088 0.0593618 0.0593981 0.0594345
0.0594709 0.0595073 0.0595438 0.0596145 0.0596853 0.0597078 0.0597787 0.0602988 0.060451 0.0606035
0.0607564 0.0609096 0.0610631 0.0612169 0.061371 0.0615255 0.0616803 0.0618355 0.0619911 0.0621469
0.0623032 0.0624598 0.0626168 0.0627741 0.0629318 0.0630898 0.0632482 0.063407 0.0635661 0.0637256
0.0638855 0.0640457 0.0642063 0.0642262 0.0642461 0.064266 0.0642859 0.0643011 0.0644433 0.0645857
0.0647284 0.0648713 0.0650146 0.0651772 0.0653402 0.0655036 0.0656673 0.0658313 0.0659956 0.0661602
0.0663252 0.0664904 0.066656 0.0668218 0.066988 0.0671544 0.0673212 0.0674882 0.0676555 0.0678231
0.0679909 0.068159 0.0683273 0.068496 0.0686648 0.068834 0.0690033 0.0691729 0.0693428 0.0695128
0.0696831 0.0698536 0.0700243 0.0701953 0.0703664 0.0705378 0.0707094 0.0708811 0.0710531 0.0712252
0.0713975 0.07157 0.0717427 0.0719156 0.0720886 0.0722618 0.0724352 0.0726087 0.0727824 0.0729562
0.0731301 0.0733042 0.0734784 0.0736528 0.0738273 0.0740019 0.0741767 0.0743515 0.0745265 0.0747015
0.0748766 0.0750518 0.0752271 0.0754026 0.075578 0.0757536 0.0759292 0.0761048 0.0762805 0.0764562
0.076632 0.0768077 0.0769835 0.0771593 0.0773352 0.077511 0.0776868 0.0778626 0.0780384 0.0782142
0.0783899 0.0785656 0.0787412 0.0789169 0.0790925 0.079268 0.0794436 0.0796191 0.0797945 0.0799699
0.0801452 0.0803205 0.0804957 0.080671 0.0808462 0.0810214 0.0811966 0.0813718 0.0815469 0.0817221
0.0818973 0.0820725 0.0822478 0.0824231 0.0825985 0.0827739 0.0829494 0.083125 0.0833006 0.0834763
0.0836522 0.0838281 0.0840041 0.0841802 0.0843565 0.0845328 0.0847094 0.084886 0.0850627 0.0852396
0.0854165 0.0855936 0.0857708 0.0859482 0.0861258 0.0863034 0.0864812 0.0866591 0.0868372 0.0870153
0.0871936 0.087372 0.0875505 0.0877292 0.0879081 0.088087 0.0882661 0.0884453 0.0886246 0.0888041
0.0889836 0.0891633 0.089343 0.089523 0.089703 0.0898832 0.0900635 0.0902439 0.0904245 0.0906051
0.0907858 0.0909666 0.0911476 0.0913287 0.0915099 0.0916913 0.0918728 0.0920543 0.092236 0.0924178
0.0925997 0.0927817 0.0929639 0.0931462 0.0933286 0.0935112 0.0936939 0.0938767 0.0940597 0.0942428
0.094426 0.0946093 0.0947928 0.0949765 0.0951604 0.0953444 0.0955286 0.0957129 0.0958974 0.0960821
0.096267 0.096452 0.0966373 0.0968227 0.0970084 0.0971944 0.0973806 0.097567 0.0977536 0.0979405
0.0981277 0.0983151 0.0985028 0.0986913 0.0988801 0.0990691 0.0992583 0.0994478 0.0996365 0.0998252
0.100014 0.100203 0.100391 0.10058 0.100769 0.100958 0.101146 0.101334 0.101522 0.10171
0.101897 0.102084 0.102271 0.102458 0.102645 0.102831 0.103017 0.103203 0.103361 0.103518
0.103675 0.103833 0.104012 0.104036 0.10406 0.104084 0.104107 0.104131 0.104317 0.104503
0.104689 0.104875 0.105061 0.105248 0.105435 0.105622 0.10581 0.105999 0.106188 0.106377
0.106568 0.106759 0.106951 0.10698 0.107009 0.107038 0.107067 0.107094 0.107258 0.107424
0.10759 0.107757 0.107924 0.108122 0.108321 0.10852 0.108722 0.108924 0.109128 0.109333
0.10954 0.109748 0.109958 0.110169 0.110382 0.110596 0.110813 0.11103 0.11125 0.111471
0.111695 0.111919 0.112146 0.112319 0.112492 0.112667 0.112843 0.113005 0.113066 0.113126
0.113187 0.113248 0.113309 0.113547 0.113786 0.114028 0.114271 0.114517 0.114764 0.115013
0.115264 0.115517 0.115772 0.116029 0.116287 0.116548 0.116811 0.117076 0.117342 0.117611
0.117881 0.118154 0.118429 0.118705 0.118984 0.119265 0.119548 0.119833 0.120119 0.120407
0.120696 0.120987 0.12128 0.121574 0.12187 0.122167 0.122465 0.122763 0.123062 0.12336
0.123658 0.123956 0.124255 0.124554 0.124852 0.12515 0.125447 0.125743 0.126013 0.126282
0.12655 0.126817 0.126996 0.127038 0.12708 0.127122 0.127164 0.127206 0.127495 0.127783
0.128069 0.128354 0.128636 0.128918 0.129198 0.129477 0.129754 0.13003 0.130304 0.130577
0.130849 0.131119 0.131388 0.131656 0.131923 0.13219 0.132455 0.132719 0.132982 0.133244
0.133505 0.133765 0.134025 0.134283 0.134541 0.134798 0.135055 0.135311 0.135565 0.13582
0.136074 0.136327 0.13658 0.136748 0.136917 0.137085 0.137253 0.137444 0.137522 0.1376
0.137678 0.137756 0.137834 0.138083 0.138332 0.138581 0.138829 0.139077 0.139323 0.13957
0.139816 0.140062 0.140307 0.140552 0.140797 0.141041 0.141285 0.141529 0.141772 0.142015
0.142258 0.1425 0.142743 0.142984 0.143226 0.143468 0.143709 0.14395 0.144191 0.144432
0.144673 0.144914 0.145154 0.145394 0.145634 0.145875 0.146115 0.146355 0.146594 0.146834
0.147074 0.147314 0.147553 0.147793 0.148032 0.148272 0.148511 0.148751 0.14899 0.14923
0.149469 0.149709 0.149948 0.150188 0.150427 0.150667 0.150907 0.151147 0.151386 0.151626
0.151866 0.152106 0.152346 0.152586 0.152826 0.153066 0.153307 0.153547 0.153787 0.154028
0.154269 0.15451 0.154751 0.154991 0.155232 0.155474 0.155715 0.155957 0.156198 0.15644
0.156682 0.156924 0.157166 0.157407 0.15765 0.157892 0.158135 0.158378 0.15862 0.158863
0.159106 0.159349 0.159592 0.159835 0.160078 0.160322 0.160565 0.160809 0.161052 0.161296
0.16154 0.161784 0.162028 0.162272 0.162516 0.162761 0.163005 0.16325 0.163494 0.163738
0.163983 0.164228 0.164473 0.164717 0.164962 0.165207 0.165452 0.165698 0.165794 0.165891
0.165987 0.166083 0.166178 0.166573 0.166966 0.16735 0.167725 0.16809 0.168957 0.169826
0.17069 0.171542 0.172368 0.173953 0.175501 0.177048 0.178595 0.18014 0.181669 0.183205
0.184741 0.186276 0.18781 0.190852 0.193895 0.196937 0.199976 0.203014 0.209036 0.215057
0.221079 0.227099 0.233119 0.239123 0.245134 0.251146 0.257157 0.263169 0.269172 0.275182
0.281193 0.287204 0.293215 0.299217 0.305228 0.311238 0.317248 0.323259 0.329261 0.335271
0.341281 0.347291 0.353301 0.359303 0.365312 0.371322 0.377331 0.38334 0.389342 0.395351
0.401359 0.407368 0.413377 0.419378 0.425437 0.43155 0.437717 0.44394 0 7.36707e-05
0.000147346 0.000221026 0.000294711 0.0003684 0.000558989 0.00074961 0.000940264 0.00113095 0.00132167 0.00151243
0.00170321 0.00189404 0.00208489 0.00227579 0.00246671 0.00265768 0.00284868 0.00303972 0.00323079 0.00342191
0.00361306 0.00380425 0.00399548 0.00418675 0.00437806 0.00456942 0.00476081 0.00495225 0.00514373 0.00521813
0.00529253 0.00536694 0.00544136 0.00551998 0.00563632 0.00575268 0.00586906 0.00598545 0.00610186 0.00629362
0.00648542 0.00667727 0.00686916 0.00706111 0.00725311 0.00744516 0.00763726 0.00782941 0.00802162 0.00821388
0.00840619 0.00859856 0.00879099 0.00898348 0.00917602 0.00936862 0.00956128 0.00975401 0.00994679 0.0101396
0.0103325 0.0105255 0.0107186 0.0109117 0.0111048 0.0112981 0.0114914 0.0116848 0.0118782 0.0120718
0.0122654 0.0124591 0.0126528 0.0128466 0.0130406 0.0132345 0.0134286 0.0136228 0.013817 0.0140113
0.0142057 0.0144002 0.0145948 0.0147895 0.0149843 0.0151792 0.0153741 0.0155692 0.0157643 0.0159596
0.016155 0.0163504 0.016546 0.0167417 0.0169375 0.0171334 0.0173294 0.0175255 0.0177218 0.0179181
0.0181146 0.0183112 0.018508 0.0187049 0.0189018 0.019099 0.0192962 0.0194936 0.0196912 0.0198889
0.0200867 0.0202847 0.0204828 0.0206811 0.0208795 0.0210781 0.0212769 0.0214758 0.0216749 0.0217328
0.0217906 0.0218485 0.0219063 0.0219602 0.0221026 0.0222451 0.0223877 0.0225305 0.0226733 0.0228734
0.0230738 0.0232744 0.0234752 0.0236762 0.0238773 0.0240788 0.0242804 0.0244822 0.0246843 0.0248866
0.0250892 0.025292 0.025495 0.0256983 0.0259018 0.0261057 0.0263097 0.0265141 0.0267188 0.0269237
0.0271289 0.0273345 0.0275403 0.0277465 0.0279529 0.0281598 0.0283669 0.0285744 0.0287823 0.0289905
0.0291991 0.0294081 0.0296175 0.0298273 0.0298599 0.0298926 0.0299253 0.029958 0.0299901 0.030168
0.0303462 0.0305248 0.0307037 0.0308829 0.0310953 0.0313082 0.0315216 0.0317355 0.0319499 0.0321649
0.0323804 0.0325965 0.0328132 0.0330304 0.0332483 0.0334668 0.033686 0.0339059 0.0341264 0.0343477
0.0345697 0.0347925 0.0350161 0.0352405 0.0354657 0.0356918 0.0359188 0.0361467 0.0363756 0.0366054
0.0368364 0.0370684 0.0373016 0.0375358 0.0377712 0.0380079 0.0382458 0.0384851 0.0387258 0.0389679
0.0392115 0.0394569 0.0397039 0.0399525 0.0402027 0.0404549 0.040709 0.0409652 0.0412235 0.0414838
0.0417466 0.042012 0.0422801 0.0425507 0.0428246 0.0431016 0.0433817 0.0436653 0.0439525 0.0442426
0.044537 0.0448356 0.0451386 0.0454472 0.045758 0.0460737 0.0463941 0.0467194 0.047055 0.0472339