# vtk DataFile Version 2.0
tracks
ASCII
DATASET POLYDATA
POINTS 19298 float
-1.001 1e-07 0.0011 -0.99955 1.00555e-07 0.00110002 -0.9981 1.01115e-07 0.00110004 -0.99665 1.01678e-07
0.00110007 -0.9952 1.02245e-07 0.0011001 -0.99375 1.02816e-07 0.00110014 -0.99 1.04284e-07 0.00110024
-0.98625 1.05771e-07 0.00110033 -0.9825 1.07259e-07 0.00110043 -0.97875 1.08772e-07 0.00110054 -0.975
1.10334e-07 0.00110067 -0.97125 1.11923e-07 0.00110082 -0.9675 1.13534e-07 0.00110097 -0.96375 1.15145e-07
0.00110112 -0.96 1.16798e-07 0.00110128 -0.95625 1.18533e-07 0.00110144 -0.9525 1.20338e-07 0.00110161
-0.94875 1.22156e-07 0.00110178 -0.945 1.23973e-07 0.00110195 -0.94125 1.25823e-07 0.00110212 -0.9375
1.27734e-07 0.0011023 -0.93375 1.29682e-07 0.00110248 -0.93 1.31656e-07 0.00110265 -0.92625 1.33631e-07
0.00110283 -0.9225 1.35632e-07 0.00110301 -0.91875 1.37683e-07 0.00110319 -0.915 1.39757e-07 0.00110338
-0.91125 1.41859e-07 0.00110356 -0.9075 1.43963e-07 0.00110375 -0.90375 1.46099e-07 0.00110393 -0.9
1.483e-07 0.00110412 -0.89625 1.50535e-07 0.00110432 -0.8925 1.52853e-07 0.00110452 -0.88875 1.55225e-07
0.00110472 -0.885 1.57625e-07 0.00110492 -0.88125 1.60025e-07 0.00110513 -0.8775 1.62415e-07 0.00110533
-0.87375 1.64839e-07 0.00110554 -0.87 1.67285e-07 0.00110575 -0.86625 1.69742e-07 0.00110597 -0.8625
1.72201e-07 0.00110619 -0.85875 1.74648e-07 0.0011064 -0.855 1.77134e-07 0.00110663 -0.85125 1.79646e-07
0.00110685 -0.8475 1.82171e-07 0.00110708 -0.84375 1.84698e-07 0.00110731 -0.84 1.87184e-07 0.00110754
-0.83625 1.89769e-07 0.00110778 -0.8325 1.9241e-07 0.00110802 -0.82875 1.95082e-07 0.00110827 -0.825
1.97755e-07 0.00110851 -0.82125 2.00415e-07 0.00110876 -0.8175 2.03177e-07 0.00110901 -0.81375 2.06024e-07
0.00110927 -0.81 2.08917e-07 0.00110953 -0.80625 2.11811e-07 0.00110979 -0.8025 2.14693e-07 0.00111005
-0.79875 2.1769e-07 0.00111032 -0.795 2.20786e-07 0.0011106 -0.79125 2.23936e-07 0.00111088 -0.7875
2.27086e-07 0.00111116 -0.78375 2.30181e-07 0.00111144 -0.78 2.33424e-07 0.00111173 -0.77625 2.36755e-07
0.00111202 -0.7725 2.40134e-07 0.00111232 -0.76875 2.43514e-07 0.00111262 -0.765 2.46832e-07 0.00111292
-0.76125 2.503e-07 0.00111323 -0.7575 2.5385e-07 0.00111355 -0.75375 2.57447e-07 0.00111387 -0.75
2.61045e-07 0.00111419 -0.74625 2.6463e-07 0.00111451 -0.7425 2.68329e-07 0.00111484 -0.73875 2.72124e-07
0.00111518 -0.735 2.75972e-07 0.00111552 -0.73125 2.79822e-07 0.00111587 -0.7275 2.83659e-07 0.00111621
-0.72375 2.87631e-07 0.00111657 -0.72 2.91716e-07 0.00111693 -0.71625 2.95866e-07 0.0011173 -0.7125
3.00018e-07 0.00111767 -0.70875 3.04157e-07 0.00111804 -0.705 3.08446e-07 0.00111842 -0.70125 3.12863e-07
0.00111881 -0.6975 3.17352e-07 0.00111921 -0.69375 3.21845e-07 0.00111961 -0.69 3.26232e-07 0.00112
-0.68625 3.30869e-07 0.00112041 -0.6825 3.35641e-07 0.00112083 -0.67875 3.4049e-07 0.00112126 -0.675
3.45342e-07 0.00112169 -0.67125 3.50074e-07 0.00112211 -0.6675 3.55067e-07 0.00112255 -0.66375 3.60188e-07
0.00112301 -0.66 3.65384e-07 0.00112346 -0.65625 3.70584e-07 0.00112392 -0.6525 3.75771e-07 0.00112438
-0.64875 3.81105e-07 0.00112485 -0.645 3.86559e-07 0.00112534 -0.64125 3.92084e-07 0.00112583 -0.6375
3.97613e-07 0.00112633 -0.63375 4.02983e-07 0.00112682 -0.63 4.08668e-07 0.00112733 -0.62625 4.14491e-07
0.00112785 -0.6225 4.20396e-07 0.00112838 -0.61875 4.26307e-07 0.00112891 -0.615 4.32033e-07 0.00112944
-0.61125 4.38101e-07 0.00112998 -0.6075 4.44306e-07 0.00113054 -0.60375 4.50593e-07 0.00113111 -0.6
4.56887e-07 0.00113168 -0.59625 4.62967e-07 0.00113225 -0.5925 4.69291e-07 0.00113282 -0.58875 4.75622e-07
0.00113339 -0.585 4.82033e-07 0.00113397 -0.58125 4.88579e-07 0.00113457 -0.5775 4.95247e-07 0.00113518
-0.57375 5.01956e-07 0.00113579 -0.57 5.08673e-07 0.0011364 -0.56625 5.1549e-07 0.00113702 -0.5625
5.2247e-07 0.00113766 -0.55875 5.29603e-07 0.00113832 -0.555 5.36781e-07 0.00113897 -0.55125 5.43969e-07
0.00113963 -0.5475 5.51286e-07 0.00114029 -0.54375 5.58815e-07 0.00114098 -0.54 5.66208e-07 0.00114168
-0.53625 5.73991e-07 0.00114238 -0.5325 5.81784e-07 0.00114308 -0.52875 5.89728e-07 0.0011438 -0.525
5.97917e-07 0.00114453 -0.52125 6.06345e-07 0.00114528 -0.5175 6.14829e-07 0.00114603 -0.51375 6.23325e-07
0.00114678 -0.51 6.31968e-07 0.00114754 -0.50625 6.40842e-07 0.00114832 -0.5025 6.49947e-07 0.00114912
-0.49875 6.59115e-07 0.00114992 -0.495 6.68296e-07 0.00115072 -0.49125 6.77606e-07 0.00115153 -0.4875
6.87112e-07 0.00115236 -0.48375 6.96249e-07 0.0011532 -0.48 7.06027e-07 0.00115405 -0.47625 7.15821e-07
0.0011549 -0.4725 7.25743e-07 0.00115576 -0.46875 7.35861e-07 0.00115663 -0.465 7.45502e-07 0.00115753
-0.46125 7.55905e-07 0.00115842 -0.4575 7.66325e-07 0.00115932 -0.45375 7.76963e-07 0.00116022 -0.45
7.87928e-07 0.00116114 -0.44625 7.98424e-07 0.00116207 -0.4425 8.09827e-07 0.00116301 -0.43875 8.21252e-07
0.00116395 -0.435 8.32936e-07 0.00116489 -0.43125 8.45004e-07 0.00116584 -0.4275 8.57496e-07 0.00116681
-0.42375 8.70084e-07 0.00116778 -0.42 8.82699e-07 0.00116875 -0.41625 8.95531e-07 0.00116972 -0.4125
9.08678e-07 0.0011707 -0.40875 9.22193e-07 0.00117168 -0.405 9.35818e-07 0.00117266 -0.40125 9.49474e-07
0.00117365 -0.3975 9.63359e-07 0.00117463 -0.39375 9.7757e-07 0.00117561 -0.39 9.90726e-07 0.00117659
-0.38625 1.00546e-06 0.00117757 -0.3825 1.02023e-06 0.00117854 -0.37875 1.03529e-06 0.00117951 -0.375
1.05074e-06 0.00118046 -0.37125 1.06493e-06 0.00118139 -0.3675 1.08103e-06 0.00118232 -0.36375 1.09717e-06
0.00118326 -0.36 1.11366e-06 0.00118416 -0.35625 1.13065e-06 0.00118503 -0.3525 1.14827e-06 0.00118587
-0.34875 1.16605e-06 0.0011867 -0.345 1.18389e-06 0.00118754 -0.34125 1.20213e-06 0.00118833 -0.3375
1.22095e-06 0.00118906 -0.33375 1.23786e-06 0.00118972 -0.33 1.25761e-06 0.00119038 -0.32625 1.27741e-06
0.00119105 -0.3225 1.29766e-06 0.00119164 -0.31875 1.31853e-06 0.00119213 -0.315 1.33699e-06 0.00119251
-0.31125 1.35891e-06 0.0011929 -0.3075 1.3809e-06 0.00119328 -0.30375 1.40348e-06 0.00119356 -0.3
1.42688e-06 0.00119368 -0.29625 1.44737e-06 0.00119364 -0.2925 1.47292e-06 0.00119337 -0.28875 1.49937e-06
0.00119287 -0.285 1.52648e-06 0.0011922 -0.28125 1.55366e-06 0.00119153 -0.2775 1.58129e-06 0.00119087
-0.27375 1.60999e-06 0.00118987 -0.27 1.63956e-06 0.00118854 -0.26625 1.66977e-06 0.00118698 -0.2625
1.70005e-06 0.00118542 -0.25875 1.73089e-06 0.00118386 -0.255 1.76287e-06 0.00118182 -0.25125 1.79578e-06
0.00117931 -0.2475 1.82936e-06 0.00117648 -0.24375 1.86298e-06 0.00117365 -0.24 1.88961e-06 0.00117083
-0.23625 1.92515e-06 0.00116738 -0.2325 1.96171e-06 0.00116331 -0.22875 1.99895e-06 0.00115883 -0.225
2.03622e-06 0.00115437 -0.22125 2.07428e-06 0.00114994 -0.2175 2.11385e-06 0.00114465 -0.21375 2.15475e-06
0.00113851 -0.21 2.19643e-06 0.00113188 -0.20625 2.23809e-06 0.0011253 -0.2025 2.28077e-06 0.00111875
-0.19875 2.32523e-06 0.00111102 -0.195 2.37097e-06 0.0011021 -0.19125 2.41733e-06 0.00109261 -0.1875
2.46359e-06 0.00108321 -0.18375 2.49648e-06 0.0010739 -0.18 2.54468e-06 0.00106309 -0.17625 2.59393e-06
0.00105078 -0.1725 2.64347e-06 0.00103797 -0.16875 2.6928e-06 0.00102533 -0.165 2.72643e-06 0.00101286
-0.16125 2.77756e-06 0.00099863 -0.1575 2.82942e-06 0.000982677 -0.15375 2.88121e-06 0.000966485 -0.15
2.93266e-06 0.000950588 -0.14625 2.96574e-06 0.000934979 -0.1425 3.01948e-06 0.000917384 -0.13875 3.07454e-06
0.000897864 -0.135 3.12924e-06 0.000878593 -0.13125 3.18345e-06 0.000859773 -0.1275 3.23864e-06 0.000841386
-0.12375 3.29367e-06 0.000820933 -0.12 3.34862e-06 0.000798806 -0.11625 3.40296e-06 0.000777314 -0.1125
3.45671e-06 0.000756435 -0.10875 3.51128e-06 0.000736144 -0.105 3.56713e-06 0.000713806 -0.10125 3.62378e-06
0.000690473 -0.0975 3.67969e-06 0.000667929 -0.0937499 3.73489e-06 0.000646146 -0.0899999 3.76414e-06 0.000625086
-0.0862499 3.81631e-06 0.00060245 -0.0824999 3.86703e-06 0.000579718 -0.0787499 3.91714e-06 0.00055785 -0.0749999
3.96666e-06 0.000536812 -0.0712499 3.98894e-06 0.000516561 -0.0674999 4.02884e-06 0.000496164 -0.0637499 4.06709e-06
0.000476405 -0.0599999 4.10515e-06 0.00045742 -0.0562499 4.14303e-06 0.000439181 -0.0524999 4.18106e-06 0.000421647
-0.0487498 4.21156e-06 0.000406452 -0.0449998 4.24211e-06 0.000391787 -0.0412498 4.27273e-06 0.000377635 -0.0374998
4.30341e-06 0.00036398 -0.0337498 4.30744e-06 0.000350797 -0.0299998 4.32988e-06 0.00034203 -0.0262498 4.35254e-06
0.000333473 -0.0224998 4.37542e-06 0.000325122 -0.0187499 4.39853e-06 0.000316973 -0.0149999 4.39607e-06 0.000309019
-0.0112499 4.40074e-06 0.000305434 -0.0074999 4.40566e-06 0.000301888 -0.00374991 4.41082e-06 0.000298382 6.11909e-08
4.41623e-06 0.000294914 0.00375005 4.42076e-06 0.000291488 0.00750005 4.42316e-06 0.000288107 0.01125 4.42577e-06
0.000284764 0.015 4.4286e-06 0.000281458 0.01875 4.43165e-06 0.000278189 0.0225 4.41568e-06 0.000277053
0.02625 4.39773e-06 0.000275924 0.03 4.37986e-06 0.0002748 0.03375 4.36205e-06 0.00027368 0.0375
4.34432e-06 0.000272564 0.04125 4.30962e-06 0.000272015 0.045 4.2726e-06 0.000271469 0.04875 4.23556e-06
0.000270924 0.0525 4.19849e-06 0.00027038 0.05625 4.1614e-06 0.000269837 0.06 4.08832e-06 0.000269592
0.06375 4.02761e-06 0.000269348 0.0675 3.96678e-06 0.000269104 0.07125 3.90583e-06 0.000268861 0.075
3.84476e-06 0.000268617 0.07875 3.75684e-06 0.000268521 0.0825 3.66702e-06 0.000268426 0.08625 3.577e-06
0.00026833 0.09 3.48678e-06 0.000268235 0.09375 3.39634e-06 0.000268139 0.0975 3.27387e-06 0.000268094
0.10125 3.14984e-06 0.00026805 0.105 3.02551e-06 0.000268005 0.10875 2.9009e-06 0.000267961 0.1125
2.77599e-06 0.000267917 0.11625 2.60521e-06 0.000267884 0.12 2.44095e-06 0.000267853 0.12375 2.2763e-06
0.000267821 0.1275 2.11125e-06 0.000267789 0.13125 1.94582e-06 0.000267758 0.135 1.7296e-06 0.000267722
0.13875 1.51781e-06 0.000267687 0.1425 1.3055e-06 0.000267652 0.14625 1.09268e-06 0.000267617 0.15
8.79354e-07 0.000267582 0.15246 7.03483e-07 0.000267549 0.15492 5.28803e-07 0.000267517 0.15738 3.53853e-07
[...]
POINT_DATA 19298
FIELD attributes 3
age 1 19298 float
0 7.30288e-05 0.000146061 0.000219098 0.000292137 0.000365181 0.000554097 0.000743013 0.000931928 0.00112086 0.00130983
0.00149882 0.00168782 0.00187682 0.00206584 0.00225489 0.00244397 0.00263306 0.00282215 0.00301125 0.00320039
0.00338957 0.00357875 0.00376794 0.00395714 0.00414638 0.00433566 0.00452494 0.00471422 0.00490353 0.00509287
0.00528226 0.0054717 0.00566118 0.00585069 0.00604019 0.0062297 0.00641925 0.00660886 0.00679849 0.00698812
0.00717775 0.00736743 0.00755717 0.00774693 0.0079367 0.00812646 0.00831628 0.00850616 0.00869607 0.00888597
0.00907588 0.00926585 0.00945588 0.00964595 0.00983601 0.0100261 0.0102162 0.0104064 0.0105966 0.0107869
0.0109771 0.0111674 0.0113578 0.0115482 0.0117386 0.011929 0.0121195 0.01231 0.0125006 0.0126912
0.0128818 0.0130725 0.0132633 0.0134541 0.0136449 0.0138358 0.0140267 0.0142177 0.0144087 0.0145997
0.0147908 0.0149819 0.0151732 0.0153645 0.0155557 0.015747 0.0159384 0.0161299 0.0163215 0.0165131
0.0167046 0.0168963 0.0170881 0.0172799 0.0174718 0.0176637 0.0178556 0.0180477 0.0182399 0.0184321
0.0186243 0.0188166 0.019009 0.0192015 0.0193941 0.0195866 0.0197793 0.0199721 0.020165 0.0203579
0.0205508 0.0207437 0.0209367 0.0211297 0.0213228 0.0215162 0.0217095 0.0219028 0.0220963 0.0222899
0.0224837 0.0226775 0.0228713 0.0230652 0.0232593 0.0234536 0.0236479 0.0238422 0.0240366 0.0242312
0.0244261 0.0246209 0.0248158 0.0250108 0.025206 0.0254015 0.025597 0.0257924 0.0259881 0.0261839
0.0263801 0.0265762 0.0267724 0.0269687 0.0271653 0.0273622 0.0275591 0.027756 0.027953 0.0281504
0.0283481 0.0285458 0.0287436 0.0289415 0.0291398 0.0293384 0.029537 0.0297356 0.0299345 0.0301337
0.0303333 0.030533 0.0307326 0.0309325 0.0311328 0.0313335 0.0315342 0.031735 0.031936 0.0321375
0.0323394 0.0325413 0.0327433 0.0329456 0.0331483 0.0333516 0.0335548 0.0337581 0.0339617 0.0341658
0.0343705 0.0345752 0.0347799 0.0349849 0.0351906 0.0353968 0.035603 0.0358092 0.0360158 0.036223
0.0364308 0.0366391 0.0368481 0.0370575 0.0372669 0.0374763 0.0376862 0.0378968 0.0381078 0.0383187
0.0385296 0.038741 0.038953 0.0391654 0.0393777 0.0395899 0.0398026 0.0400157 0.0402291 0.0404423
0.0406555 0.0408689 0.0410827 0.0412966 0.0415102 0.0417237 0.0419373 0.0421509 0.0423643 0.0425775
0.0427904 0.0430029 0.0432151 0.0434268 0.0436382 0.0438493 0.0440595 0.0442688 0.0444775 0.0446859
0.0448938 0.0451004 0.0453054 0.0455099 0.045714 0.0459177 0.0461193 0.0463189 0.0465182 0.0467172
0.0469158 0.0471117 0.0473057 0.0474995 0.0476931 0.0478865 0.0480765 0.0482652 0.0484538 0.0486423
0.0488309 0.0490157 0.0492001 0.0493845 0.0495691 0.0497538 0.0499352 0.0501167 0.0502985 0.0504804
0.0506626 0.0508426 0.0510228 0.0512032 0.0513837 0.0515645 0.0517445 0.0519246 0.0521048 0.052285
0.0524654 0.0526458 0.0528263 0.0530068 0.0531875 0.0533682 0.053549 0.0537298 0.0539106 0.0540914
0.0542726 0.0544537 0.0546349 0.0548161 0.0549973 0.0551788 0.0553603 0.0555418 0.0557233 0.0559049
0.0560867 0.0562685 0.0564504 0.0566322 0.0568141 0.0569962 0.0571783 0.0573605 0.0575426 0.0577247
0.0579072 0.0580896 0.058272 0.0584544 0.0586369 0.0588196 0.0590023 0.059185 0.0593677 0.0595505
0.0596705 0.0597906 0.0599106 0.0600307 0.0601529 0.0602154 0.060278 0.0603405 0.060403 0.0604656
0.0606489 0.0608323 0.0610156 0.0611989 0.0613822 0.0615659 0.0617495 0.0619331 0.0621167 0.0623004
0.0624843 0.0626682 0.0628521 0.063036 0.0632199 0.0634041 0.0635882 0.0637724 0.0639566 0.0641407
0.0643252 0.0645096 0.064694 0.0648784 0.0650628 0.0652475 0.0654321 0.0656167 0.0658014 0.065986
0.0661709 0.0663557 0.0665406 0.0667254 0.0669103 0.0670953 0.0672805 0.0674657 0.0676508 0.067836
0.0680212 0.0682066 0.0683919 0.0685772 0.0687625 0.0689479 0.0691334 0.0693188 0.0695043 0.0696897
0.0698752 0.0700608 0.0702464 0.0704319 0.0706175 0.0708031 0.0709888 0.0711744 0.0713601 0.0715458
0.0717315 0.0719172 0.0721029 0.0722887 0.0724744 0.0726602 0.072846 0.0730318 0.0732176 0.0734034
0.0735893 0.0737751 0.073961 0.0741468 0.0743327 0.0745185 0.0747044 0.0748903 0.0750761 0.075262
0.0754479 0.0756337 0.0758196 0.0760054 0.0761913 0.0763772 0.076563 0.0767488 0.0769347 0.0771205
0.0773064 0.0774921 0.0776779 0.0778637 0.0780495 0.0782353 0.078421 0.0786068 0.0787925 0.0789782
0.079164 0.0793497 0.0795353 0.079721 0.0799067 0.0800924 0.0802781 0.0804637 0.0806494 0.0808351
0.0810208 0.0812064 0.0813921 0.0815777 0.0817634 0.0819491 0.0821347 0.0823204 0.082506 0.0826917
0.0828774 0.0830631 0.0832488 0.0834345 0.0836202 0.0838059 0.0839917 0.0841774 0.0843631 0.0845489
0.0847347 0.0849205 0.0851063 0.0852921 0.0854779 0.0856637 0.0858496 0.0860354 0.0862213 0.0864071
0.086593 0.0867789 0.0869648 0.0871507 0.0873367 0.0875226 0.0877086 0.0878945 0.0880805 0.0882664
0.0884525 0.0886385 0.0888245 0.0890105 0.0891965 0.0893825 0.0895686 0.0897546 0.0899407 0.0901267
0.0903128 0.0904989 0.090685 0.090871 0.0910571 0.0912433 0.0914294 0.0916155 0.0918016 0.0919877
0.0921739 0.09236 0.0925461 0.0927323 0.0929184 0.0931046 0.0932908 0.0934769 0.0936631 0.0938492
0.0940354 0.0942216 0.0944078 0.094594 0.0947802 0.0949664 0.0951526 0.0953388 0.095525 0.0957113
0.0958975 0.0960837 0.09627 0.0964562 0.0966424 0.0968287 0.097015 0.0972012 0.0973875 0.0975737
0.09776 0.0979463 0.0981326 0.0983188 0.0985051 0.0986914 0.0988776 0.0990638 0.0992501 0.0994363
0.0996225 0.0998087 0.0999949 0.100181 0.100367 0.100553 0.10074 0.100926 0.101112 0.101298
0.101485 0.101671 0.101858 0.102044 0.102231 0.102418 0.102605 0.102792 0.10298 0.103167
0.103354 0.103543 0.103732 0.103921 0.104109 0.104298 0.104489 0.104679 0.10487 0.10506
0.105251 0.105444 0.105637 0.10583 0.106023 0.106216 0.106411 0.106607 0.106802 0.106997
0.107193 0.10739 0.107587 0.107785 0.107982 0.108179 0.108378 0.108576 0.108775 0.108973
0.109172 0.109371 0.10957 0.109769 0.109968 0.110167 0.110366 0.110566 0.110765 0.110964
0.111163 0.111362 0.111561 0.111759 0.111958 0.112157 0.112355 0.112554 0.112752 0.11295
0.113148 0.113346 0.113544 0.113742 0.11394 0.114137 0.114335 0.114532 0.114729 0.114926
0.115122 0.115319 0.115515 0.115712 0.115908 0.116104 0.116299 0.116495 0.11669 0.116885
0.11708 0.117275 0.11747 0.117664 0.117859 0.118053 0.118247 0.11844 0.118634 0.118828
0.119021 0.119214 0.119407 0.1196 0.119792 0.119985 0.120177 0.120369 0.120561 0.120753
0.120945 0.121137 0.121328 0.12152 0.121711 0.121902 0.122093 0.122284 0.122475 0.122666
0.122857 0.123047 0.123238 0.123428 0.123619 0.123809 0.123999 0.124189 0.124379 0.12457
0.124759 0.124949 0.125139 0.125329 0.125519 0.125708 0.125898 0.126088 0.126277 0.126467
0.126656 0.126846 0.127035 0.127224 0.127414 0.127603 0.127792 0.127982 0.128171 0.12836
0.128549 0.128738 0.128927 0.129116 0.129305 0.129494 0.129683 0.129872 0.130061 0.13025
0.130439 0.130628 0.130817 0.131006 0.131195 0.131383 0.131572 0.131761 0.13195 0.132138
0.132327 0.132516 0.132704 0.132893 0.133082 0.13327 0.133459 0.133648 0.133836 0.134025
0.134213 0.134402 0.134591 0.134779 0.134968 0.135156 0.135345 0.135533 0.135722 0.13591
0.136099 0.136287 0.136475 0.136664 0.136852 0.137041 0.137229 0.137417 0.137606 0.137794
0.137983 0.138171 0.138359 0.138548 0.138736 0.138924 0.139112 0.139301 0.139489 0.139677
0.139866 0.140054 0.140242 0.14043 0.140619 0.140807 0.140995 0.141183 0.141371 0.141559
0.141748 0.141936 0.142124 0.142312 0.1425 0.142688 0.142877 0.143065 0.143253 0.143441
0.143629 0.143817 0.144005 0.144193 0.144381 0.144569 0.144757 0.144946 0.145134 0.145322
0.14551 0.145698 0.145886 0.146074 0.146262 0.14645 0.146638 0.146826 0.147014 0.147202
0.14739 0.147578 0.147766 0.147954 0.148142 0.14833 0.148518 0.148706 0.148894 0.149082
0.149269 0.149457 0.149645 0.149833 0.150021 0.150209 0.150397 0.150585 0.150773 0.150961
0.151149 0.151336 0.151524 0.151712 0.1519 0.152276 0.152651 0.153027 0.153403 0.153778
0.154529 0.15528 0.15603 0.156781 0.157531 0.159032 0.160532 0.162032 0.163532 0.165033
0.166533 0.168033 0.169533 0.171033 0.172534 0.175534 0.178534 0.181534 0.184534 0.187535
0.193535 0.199535 0.205535 0.211535 0.217535 0.223535 0.229535 0.235535 0.241535 0.247536
0.253536 0.259536 0.265536 0.271536 0.277536 0.283536 0.289536 0.295536 0.301536 0.307536
0.313536 0.319536 0.325536 0.331536 0.337536 0.343536 0.349536 0.355536 0.361536 0.367537
0.373537 0.379537 0.385537 0.391537 0.397537 0.403537 0.409563 0.413918 0 7.37206e-05
0.000147445 0.000221174 0.000294906 0.000368643 0.000559354 0.000750099 0.000940878 0.00113169 0.00132254 0.00151342
0.00170434 0.0018953 0.00208629 0.00227732 0.00246838 0.00265948 0.00285062 0.0030418 0.00323302 0.00342427
0.00361557 0.00380691 0.00399829 0.00418971 0.00438117 0.00457268 0.00476423 0.00495582 0.00514746 0.00533914
0.00553087 0.00572265 0.00591448 0.00610635 0.00629827 0.00649024 0.00668226 0.00687433 0.00706646 0.00725863
0.00745086 0.00764315 0.00783549 0.00802788 0.00822033 0.00841283 0.0086054 0.00879802 0.00899071 0.00918345
0.00937626 0.00956912 0.00976206 0.00995505 0.0101481 0.0103412 0.0105344 0.0107277 0.010921 0.0111144
0.0113079 0.0115015 0.0116951 0.0118888 0.0120825 0.0122764 0.0124703 0.0126643 0.0128584 0.0130526
0.0132468 0.0134412 0.0136356 0.0138301 0.0140247 0.0142194 0.0144142 0.0146091 0.0148041 0.0149991
0.0151943 0.0153896 0.0155849 0.0157804 0.015976 0.0161717 0.0163675 0.0165634 0.0167594 0.0169555
0.0171518 0.0173481 0.0175446 0.0177412 0.0179379 0.0181348 0.0183318 0.0185289 0.0187261 0.0189235
0.0191211 0.0193187 0.0195165 0.0197145 0.0199126 0.0201108 0.0203092 0.0205078 0.0207065 0.0209054
0.0211045 0.0213037 0.0215031 0.0217026 0.0219024 0.0221023 0.0223024 0.0225027 0.0227032 0.0229039
0.0231048 0.0233059 0.0235072 0.0237087 0.0239104 0.0241123 0.0243145 0.0245169 0.0247196 0.0249224
0.0251255 0.0253289 0.0255325 0.0257364 0.0259405 0.0261449 0.0263496 0.0265546 0.0267598 0.0269654
0.0271712 0.0273773 0.0275838 0.0277906 0.0279977 0.0282051 0.0284129 0.028621 0.0288295 0.0290383
0.0292475 0.0294571 0.0296671 0.0298774 0.0300882 0.0302994 0.030511 0.030723 0.0309355 0.0311484
0.0313618 0.0315757 0.0317901 0.0320049 0.0322202 0.0324361 0.0326526 0.0328695 0.033087 0.0333051
0.0335238 0.0337431 0.0339629 0.0341835 0.0344046 0.0346264 0.0348489 0.0350721 0.035296 0.0355206
0.035746 0.0359721 0.036199 0.0364267 0.0366552 0.0368846 0.0371148 0.037346 0.037578 0.0378109
0.0380448 0.0382796 0.0385154 0.0387523 0.0389902 0.0392292 0.0394693 0.0397105 0.0399529 0.0401963
0.0404409 0.0406867 0.0409338 0.0411821 0.0414318 0.0416827 0.041935 0.0421887 0.0424438 0.0427001
0.0429576 0.0432163 0.0434764 0.0437383 0.0440014 0.0442658 0.0445314 0.0447981 0.0450669 0.0453362
0.0456062 0.0458768 0.046148 0.0464217 0.0465593 0.0466969 0.0468344 0.0469718 0.0470542 0.0472014
0.0473485 0.0474954 0.0476422 0.0477899 0.0480631 0.0483345 0.0486041 0.0488718 0.0491428 0.0492972
0.0494504 0.0496022 0.0497529 0.0498671 0.0499826 0.0500974 0.0502114 0.0503248 0.0504383 0.0506882
0.0509328 0.0511724 0.0514072 0.0516386 0.0516575 0.0516763 0.051695 0.0517138 0.0517326 0.0519375
0.0521379 0.0523341 0.052526 0.0527121 0.0528266 0.0529393 0.0530504 0.0531599 0.053298 0.0533706
0.0534427 0.0535141 0.0535849 0.0536546 0.0538305 0.0540027 0.0541714 0.0543368 0.0544958 0.0546367
0.0547761 0.054914 0.0550503 0.0552681 0.0552847 0.0553012 0.0553178 0.0553343 0.0553534 0.055484
0.0556142 0.0557438 0.0558728 0.0560006 0.0561448 0.0562891 0.0564335 0.0565781 0.0567226 0.0568672
0.0570121 0.0571573 0.057303 0.0574489 0.057497 0.0575451 0.0575932 0.0576414 0.0576811 0.0577815
0.0578821 0.0579828 0.0580837 0.0581848 0.058333 0.0584815 0.0586303 0.0587795 0.058929 0.0590788
0.059229 0.0593795 0.0595303 0.0596815 0.059833 0.0599847 0.0601368 0.0602892 0.060442 0.060595
0.0607484 0.0609021 0.0610562 0.0612105 0.0613652 0.0615203 0.0616756 0.0618314 0.0619874 0.0621439
0.0623006 0.0624578 0.0626153 0.0627732 0.0629314 0.06309 0.0632489 0.0634082 0.0635679 0.063728
0.0638884 0.0640492 0.0642103 0.0643719 0.0645337 0.0646959 0.0648585 0.0650214 0.0651847 0.0653483
0.0655122 0.0656765 0.0658412 0.0660061 0.0661714 0.066337 0.0665029 0.0666691 0.0668356 0.0670024
0.0671696 0.067337 0.0675047 0.0676727 0.067841 0.0680096 0.0681784 0.0683475 0.0685168 0.0686865
0.0688564 0.0690265 0.0691969 0.0693675 0.0695384 0.0697095 0.0698808 0.0700523 0.0702241 0.0703961
0.0705683 0.0707407 0.0709134 0.0710862 0.0712593 0.0714325 0.0716058 0.0717794 0.0719532 0.0721272
0.0723013 0.0724756 0.0726501 0.0728247 0.0729995 0.0731744 0.0733494 0.0735246 0.0737 0.0738754
0.0740511 0.0742268 0.0744026 0.0745786 0.0747547 0.0749308 0.075107 0.0752833 0.0754597 0.0756362
0.0758127 0.0759893 0.076166 0.0763427 0.0765194 0.0766962 0.0768729 0.0770497 0.0772265 0.0774034
0.0775802 0.077757 0.0779338 0.0781105 0.0782873 0.078464 0.0786406 0.0788172 0.0789938 0.0791703
0.0793468 0.0795232 0.0796996 0.0798759 0.0800522 0.0802284 0.0804045 0.0805805 0.0807565 0.0809325
0.0811085 0.0812844 0.0814603 0.0816362 0.081812 0.0819879 0.0821637 0.0823396 0.0825154 0.0826914
0.0828673 0.0830434 0.0832195 0.0833956 0.0835718 0.0837481 0.0839244 0.0841008 0.0842773 0.084454
0.0846307 0.0848076 0.0849846 0.0851616 0.0853388 0.0855161 0.0856935 0.085871 0.0860486 0.0862264
0.0864043 0.0865824 0.0867605 0.0869388 0.0871172 0.0872957 0.0874742 0.0876529 0.0878318 0.0880108
0.0881899 0.0883691 0.0885484 0.0887278 0.0889074 0.089087 0.0892668 0.0894466 0.0896265 0.0898066
0.0899868 0.0901671 0.0903475 0.090528 0.0907086 0.0908892 0.09107 0.0912508 0.0914317 0.0916128
0.0917939 0.0919752 0.0921565 0.0923379 0.0925194 0.092701 0.0928827 0.0930644 0.0932462 0.0934281
0.0936101 0.0937922 0.0939744 0.0941567 0.094339 0.0945214 0.0947038 0.0948863 0.095069 0.0952517
0.0954345 0.0956175 0.0958004 0.0959835 0.0961667 0.0963499 0.0965332 0.0967166 0.0969001 0.0970836
0.0972673 0.0974511 0.0976349 0.0978189 0.0980029 0.098187 0.0983712 0.0985554 0.0987397 0.0989245
0.0991092 0.0992939 0.0994785 0.099663 0.0998466 0.10003 0.100213 0.100396 0.100579 0.100761
0.100943 0.101126 0.101308 0.10149 0.101672 0.101855 0.102039 0.102223 0.102408 0.102594
0.102781 0.10297 0.10316 0.103353 0.103547 0.103744 0.103944 0.104146 0.104352 0.104561
0.104774 0.104992 0.105213 0.105439 0.105669 0.105904 0.106144 0.106389 0.106639 0.106724
0.10681 0.106897 0.106984 0.107074 0.10725 0.107428 0.107609 0.107793 0.10798 0.108264
0.108556 0.108853 0.109157 0.109466 0.109783 0.110105 0.110435 0.110772 0.111116 0.111468
0.111828 0.112194 0.112568 0.112948 0.113336 0.11373 0.114129 0.114532 0.114939 0.115351
0.115763 0.116175 0.116586 0.117 0.117414 0.117826 0.118238 0.118645 0.119051 0.119452
0.119847 0.120238 0.120626 0.121012 0.121162 0.121312 0.121461 0.121609 0.121753 0.121981
0.122208 0.122433 0.122656 0.122877 0.123239 0.123598 0.123952 0.124303 0.12465 0.124993
0.125332 0.125669 0.126002 0.126332 0.126518 0.126703 0.126887 0.12707 0.127277 0.127411
0.127544 0.127677 0.127809 0.127941 0.128255 0.128567 0.128876 0.129183 0.129487 0.129789
0.130088 0.130386 0.130682 0.130975 0.131267 0.131558 0.131847 0.132134 0.132419 0.132704
0.132987 0.133268 0.133549 0.133828 0.134003 0.134178 0.134352 0.134526 0.134732 0.134827
0.134922 0.135017 0.135111 0.135205 0.135478 0.135749 0.13602 0.136289 0.136558 0.136825
0.137092 0.137358 0.137623 0.137887 0.13815 0.138413 0.138675 0.138937 0.139198 0.139458
0.139718 0.139977 0.140236 0.140495 0.140753 0.14101 0.141268 0.141525 0.141781 0.142037
0.142293 0.142549 0.142804 0.143059 0.143314 0.143568 0.143823 0.144077 0.144331 0.144585
0.144838 0.145092 0.145345 0.145598 0.145851 0.146104 0.146357 0.146609 0.146862 0.147115
0.147367 0.147619 0.147871 0.148123 0.148375 0.148627 0.148879 0.149131 0.149383 0.149635
0.149886 0.150138 0.150389 0.150641 0.150892 0.151144 0.151395 0.151647 0.151898 0.152149
0.1524 0.152651 0.152902 0.153153 0.153404 0.153655 0.153906 0.154156 0.154407 0.154657
0.154908 0.155158 0.155408 0.155658 0.155703 0.155747 0.155792 0.155837 0.155882 0.156087
0.156292 0.156495 0.156698 0.156899 0.157143 0.157387 0.157629 0.15787 0.158109 0.158348
0.158585 0.158822 0.159057 0.159292 0.159525 0.159757 0.159989 0.16022 0.16045 0.160679
0.160907 0.161135 0.161362 0.161588 0.161813 0.162037 0.162262 0.162485 0.162708 0.16293
0.163151 0.163372 0.163592 0.163812 0.164031 0.164249 0.164468 0.164685 0.164902 0.165118
0.165334 0.16555 0.165765 0.16598 0.166193 0.166407 0.166621 0.166834 0.167046 0.167258
0.16747 0.167681 0.167892 0.168103 0.168312 0.168522 0.168732 0.168941 0.16915 0.169358
0.169567 0.169775 0.169982 0.17019 0.170396 0.170603 0.17081 0.171016 0.171222 0.171427
0.171633 0.171838 0.172043 0.172248 0.172656 0.173064 0.173471 0.173877 0.174276 0.175054
0.175831 0.176608 0.177383 0.178158 0.179678 0.181187 0.182695 0.184203 0.185711 0.187219
0.188725 0.190231 0.191737 0.193243 0.196254 0.199265 0.202276 0.205287 0.208297 0.214304
0.22031 0.226316 0.232322 0.238328 0.24433 0.250332 0.256334 0.262336 0.268337 0.274339
0.280341 0.286342 0.292344 0.298345 0.304347 0.310349 0.31635 0.322352 0.328353 0.334355
0.340356 0.346358 0.352359 0.358361 0.364362 0.370364 0.376365 0.382367 0.388368 0.394369
0.400371 0.406372 0.412374 0.418375 0.424377 0.430404 0.436457 0.442536 0.448642 0
7.3697e-05 0.000147399 0.000221105 0.000294817 0.000368533 0.00055919 0.000749881 0.000940605 0.00113136 0.00132215
0.00151298 0.00170384 0.00189474 0.00208567 0.00227663 0.00246763 0.00265867 0.00284975 0.00304087 0.00323202
0.00342321 0.00361444 0.00380571 0.00399702 0.00418837 0.00437976 0.0045712 0.00476268 0.0049542 0.00514577
0.00533738 0.00552903 0.00572073 0.00591248 0.00610427 0.00629611 0.006488 0.00667994 0.00687193 0.00706397
0.00725606 0.0074482 0.0076404 0.00783265 0.00802495 0.00821731 0.00840972 0.00860219 0.00879472 0.0089873
0.00917995 0.00937265 0.00956542 0.00975825 0.00995114 0.0101441 0.0103371 0.0105302 0.0107233 0.0109166
0.0111099 0.0113032 0.0114966 0.0116901 0.0118837 0.0120774 0.0122711 0.0124649 0.0126588 0.0128527
0.0130467 0.0132409 0.0134351 0.0136293 0.0138237 0.0140182 0.0142127 0.0144073 0.0146021 0.0147969
0.0149918 0.0151868 0.0153819 0.0155771 0.0157724 0.0159678 0.0161633 0.016359 0.0165547 0.0167505
0.0169464 0.0171425 0.0173387 0.017535 0.0177314 0.0179279 0.0181246 0.0183213 0.0185182 0.0187153
0.0189124 0.0191097 0.0193072 0.0195048 0.0197025 0.0199003 0.0200984 0.0202965 0.0204948 0.0206933
0.0208919 0.0210907 0.0212897 0.0214888 0.0216881 0.0218876 0.0220872 0.022287 0.0224871 0.0226873
0.0228876 0.0230882 0.023289 0.02349 0.0236912 0.0238926 0.0240943 0.0242961 0.0244982 0.0247005
0.024903 0.0251058 0.0253088 0.0255121 0.0257157 0.0259194 0.0261235 0.0263278 0.0265325 0.0267374
0.0269425 0.027148 0.0273538 0.0275599 0.0277664 0.0279731 0.0281802 0.0283876 0.0285954 0.0288035
0.029012 0.0292209 0.0294302 0.0296399 0.0298499 0.0298734 0.0298969 0.0299203 0.0299438 0.029967
0.0301543 0.0303419 0.0305299 0.0307183 0.030907 0.0311197 0.0313329 0.0315467 0.0317609 0.0319757
0.032191 0.0324069 0.0326234 0.0328404 0.0330581 0.0332764 0.0334954 0.033715 0.0339354 0.0341564
0.0343782 0.0346008 0.0348242 0.0350484 0.0352734 0.0354993 0.0357261 0.0359539 0.0361826 0.0364124
0.0366431 0.036875 0.037108 0.0373423 0.0375776 0.0378142 0.0380521 0.0382914 0.038532 0.0387741
0.0390177 0.0392629 0.0395099 0.0397586 0.040009 0.0402611 0.0405152 0.0407713 0.0410296 0.04129
0.0415526 0.0418177 0.0420855 0.042356 0.0426292 0.0429058 0.0431855 0.0434685 0.0437549 0.0440451
0.0443382 0.0446355 0.0449372 0.0452433 0.045555 0.0458691 0.046188 0.0465117 0.0468402 0.0471791
0.0473939 0.047611 0.0478303 0.0480513 0.0481242 0.0482913 0.0484591 0.0486278 0.0487972 0.0489723
0.0493156 0.0496617 0.0500097 0.0503564 0.0504362 0.0505309 0.0506255 0.0507198 0.0508139 0.0509109
0.0511354 0.0513571 0.0515759 0.0517918 0.0519247 0.0521141 0.0523005 0.0524838 0.0526642 0.0528541
0.0528946 0.0529349 0.0529751 0.053015 0.0530531 0.0532537 0.0534484 0.0536382 0.0538232 0.0539936