# vtk DataFile Version 2.0
tracks
ASCII
DATASET POLYDATA
POINTS 19461 float
-1.001 1e-07 0.0011 -0.99955 9.70853e-08 0.00110002 -0.9981 9.41672e-08 0.00110004 -0.99665 9.12454e-08
0.00110007 -0.9952 8.83202e-08 0.0011001 -0.99375 8.53913e-08 0.00110014 -0.99 7.7791e-08 0.00110024
-0.98625 7.02044e-08 0.00110033 -0.9825 6.26157e-08 0.00110043 -0.97875 5.4997e-08 0.00110054 -0.975
4.73217e-08 0.00110067 -0.97125 3.95807e-08 0.00110082 -0.9675 3.18461e-08 0.00110097 -0.96375 2.41089e-08
0.00110112 -0.96 1.63391e-08 0.00110128 -0.95625 8.50821e-09 0.00110144 -0.955442 6.80657e-09 0.00110148
-0.954633 5.10497e-09 0.00110151 -0.953825 3.40324e-09 0.00110155 -0.953016 1.70138e-09 0.00110159 -0.952208
1.68936e-17 0.00110162 -0.949266 -6.19315e-09 0.00110176 -0.946325 -1.2388e-08 0.00110189 -0.943383 -1.85924e-08
0.00110202 -0.940442 -2.48372e-08 0.00110216 -0.9375 -3.11224e-08 0.0011023 -0.93375 -3.91837e-08 0.00110247
-0.93 -4.72506e-08 0.00110265 -0.92625 -5.53205e-08 0.00110283 -0.9225 -6.34304e-08 0.00110301 -0.91875
-7.16153e-08 0.00110319 -0.915 -7.98692e-08 0.00110338 -0.91125 -8.81325e-08 0.00110356 -0.9075 -9.63988e-08
0.00110374 -0.90375 -1.04708e-07 0.00110393 -0.9 -1.13098e-07 0.00110412 -0.89625 -1.2156e-07 0.00110431
-0.8925 -1.30115e-07 0.00110451 -0.88875 -1.38754e-07 0.00110471 -0.885 -1.47437e-07 0.00110492 -0.88125
-1.56124e-07 0.00110512 -0.8775 -1.64783e-07 0.00110532 -0.87375 -1.73563e-07 0.00110553 -0.87 -1.82433e-07
0.00110575 -0.86625 -1.91351e-07 0.00110596 -0.8625 -2.00273e-07 0.00110618 -0.85875 -2.09156e-07 0.00110639
-0.855 -2.18183e-07 0.00110661 -0.85125 -2.27308e-07 0.00110684 -0.8475 -2.36488e-07 0.00110707 -0.84375
-2.45672e-07 0.0011073 -0.84 -2.54842e-07 0.00110753 -0.83625 -2.64139e-07 0.00110776 -0.8325 -2.73543e-07
0.00110801 -0.82875 -2.83006e-07 0.00110825 -0.825 -2.92473e-07 0.00110849 -0.82125 -3.01878e-07 0.00110874
-0.8175 -3.11467e-07 0.00110899 -0.81375 -3.21171e-07 0.00110925 -0.81 -3.30939e-07 0.00110951 -0.80625
-3.40711e-07 0.00110977 -0.8025 -3.50407e-07 0.00111003 -0.79875 -3.6031e-07 0.0011103 -0.795 -3.70337e-07
0.00111057 -0.79125 -3.80432e-07 0.00111085 -0.7875 -3.90532e-07 0.00111113 -0.78375 -4.00612e-07 0.00111141
-0.78 -4.10849e-07 0.0011117 -0.77625 -4.21212e-07 0.00111199 -0.7725 -4.31647e-07 0.00111229 -0.76875
-4.42087e-07 0.00111259 -0.765 -4.52505e-07 0.00111289 -0.76125 -4.63082e-07 0.00111319 -0.7575 -4.73783e-07
0.00111351 -0.75375 -4.84555e-07 0.00111383 -0.75 -4.95333e-07 0.00111415 -0.74625 -5.05979e-07 0.00111447
-0.7425 -5.16899e-07 0.0011148 -0.73875 -5.27948e-07 0.00111514 -0.735 -5.3907e-07 0.00111548 -0.73125
-5.50198e-07 0.00111582 -0.7275 -5.61171e-07 0.00111617 -0.72375 -5.72454e-07 0.00111652 -0.72 -5.83876e-07
0.00111688 -0.71625 -5.95376e-07 0.00111725 -0.7125 -6.06884e-07 0.00111762 -0.70875 -6.18211e-07 0.00111799
-0.705 -6.29882e-07 0.00111837 -0.70125 -6.41697e-07 0.00111876 -0.6975 -6.53596e-07 0.00111916 -0.69375
-6.65503e-07 0.00111955 -0.69 -6.77385e-07 0.00111995 -0.68625 -6.89463e-07 0.00112036 -0.6825 -7.01691e-07
0.00112078 -0.67875 -7.14005e-07 0.0011212 -0.675 -7.26328e-07 0.00112163 -0.67125 -7.38627e-07 0.00112205
-0.6675 -7.51123e-07 0.00112249 -0.66375 -7.63765e-07 0.00112294 -0.66 -7.76494e-07 0.0011234 -0.65625
-7.89234e-07 0.00112386 -0.6525 -8.01683e-07 0.00112432 -0.64875 -8.146e-07 0.00112479 -0.645 -8.27665e-07
0.00112528 -0.64125 -8.40818e-07 0.00112577 -0.6375 -8.53982e-07 0.00112626 -0.63375 -8.67123e-07 0.00112676
-0.63 -8.80481e-07 0.00112727 -0.62625 -8.93993e-07 0.00112779 -0.6225 -9.07601e-07 0.00112832 -0.61875
-9.21221e-07 0.00112885 -0.615 -9.34821e-07 0.00112938 -0.61125 -9.4864e-07 0.00112992 -0.6075 -9.62616e-07
0.00113048 -0.60375 -9.76688e-07 0.00113105 -0.6 -9.90773e-07 0.00113162 -0.59625 -1.00484e-06 0.00113219
-0.5925 -1.01899e-06 0.00113277 -0.58875 -1.03316e-06 0.00113334 -0.585 -1.04743e-06 0.00113392 -0.58125
-1.06185e-06 0.00113451 -0.5775 -1.07589e-06 0.00113513 -0.57375 -1.09053e-06 0.00113574 -0.57 -1.1052e-06
0.00113635 -0.56625 -1.11997e-06 0.00113698 -0.5625 -1.13492e-06 0.00113762 -0.55875 -1.1494e-06 0.00113828
-0.555 -1.1646e-06 0.00113894 -0.55125 -1.17981e-06 0.0011396 -0.5475 -1.19515e-06 0.00114027 -0.54375
-1.21068e-06 0.00114096 -0.54 -1.22639e-06 0.00114166 -0.53625 -1.24221e-06 0.00114237 -0.5325 -1.25805e-06
0.00114308 -0.52875 -1.27402e-06 0.0011438 -0.525 -1.2902e-06 0.00114454 -0.52125 -1.30571e-06 0.00114529
-0.5175 -1.32221e-06 0.00114605 -0.51375 -1.33872e-06 0.00114681 -0.51 -1.35538e-06 0.00114758 -0.50625
-1.37227e-06 0.00114837 -0.5025 -1.38835e-06 0.00114917 -0.49875 -1.40558e-06 0.00114998 -0.495 -1.42284e-06
0.00115079 -0.49125 -1.44026e-06 0.00115161 -0.4875 -1.45791e-06 0.00115245 -0.48375 -1.47582e-06 0.00115331
-0.48 -1.49387e-06 0.00115417 -0.47625 -1.51196e-06 0.00115503 -0.4725 -1.53021e-06 0.0011559 -0.46875
-1.54872e-06 0.00115679 -0.465 -1.56753e-06 0.0011577 -0.46125 -1.58648e-06 0.00115861 -0.4575 -1.60547e-06
0.00115952 -0.45375 -1.62465e-06 0.00116044 -0.45 -1.64409e-06 0.00116137 -0.44625 -1.66384e-06 0.00116233
-0.4425 -1.68377e-06 0.00116328 -0.43875 -1.70373e-06 0.00116423 -0.435 -1.72389e-06 0.00116519 -0.43125
-1.74432e-06 0.00116617 -0.4275 -1.76307e-06 0.00116716 -0.42375 -1.78405e-06 0.00116814 -0.42 -1.80506e-06
0.00116913 -0.41625 -1.8263e-06 0.00117013 -0.4125 -1.84784e-06 0.00117113 -0.40875 -1.86738e-06 0.00117213
-0.405 -1.88954e-06 0.00117314 -0.40125 -1.91176e-06 0.00117415 -0.3975 -1.93422e-06 0.00117516 -0.39375
-1.95702e-06 0.00117616 -0.39 -1.9803e-06 0.00117717 -0.38625 -2.00383e-06 0.00117817 -0.3825 -2.0274e-06
0.00117918 -0.37875 -2.05124e-06 0.00118018 -0.375 -2.07545e-06 0.00118115 -0.37125 -2.10021e-06 0.00118212
-0.3675 -2.12524e-06 0.00118308 -0.36375 -2.15033e-06 0.00118405 -0.36 -2.1757e-06 0.00118499 -0.35625
-2.20143e-06 0.00118589 -0.3525 -2.22359e-06 0.00118676 -0.34875 -2.25023e-06 0.00118763 -0.345 -2.27695e-06
0.00118849 -0.34125 -2.30395e-06 0.00118932 -0.3375 -2.33134e-06 0.00119007 -0.33375 -2.35944e-06 0.00119077
-0.33 -2.38787e-06 0.00119146 -0.32625 -2.41638e-06 0.00119215 -0.3225 -2.4452e-06 0.00119277 -0.31875
-2.47442e-06 0.00119329 -0.315 -2.50447e-06 0.0011937 -0.31125 -2.53489e-06 0.00119411 -0.3075 -2.5654e-06
0.00119452 -0.30375 -2.59622e-06 0.00119482 -0.3 -2.62743e-06 0.00119496 -0.29625 -2.65219e-06 0.00119494
-0.2925 -2.685e-06 0.00119469 -0.28875 -2.71817e-06 0.0011942 -0.285 -2.75163e-06 0.00119355 -0.28125
-2.78516e-06 0.00119289 -0.2775 -2.81056e-06 0.00119223 -0.27375 -2.84549e-06 0.00119124 -0.27 -2.88074e-06
0.00118991 -0.26625 -2.91622e-06 0.00118835 -0.2625 -2.95179e-06 0.00118678 -0.25875 -2.97754e-06 0.00118522
-0.255 -3.0146e-06 0.00118317 -0.25125 -3.05187e-06 0.00118064 -0.2475 -3.08932e-06 0.00117778 -0.24375
-3.12683e-06 0.00117493 -0.24 -3.16548e-06 0.00117208 -0.23625 -3.20457e-06 0.0011686 -0.2325 -3.2437e-06
0.00116449 -0.22875 -3.28288e-06 0.00115997 -0.225 -3.3221e-06 0.00115547 -0.22125 -3.34718e-06 0.00115098
-0.2175 -3.38771e-06 0.00114563 -0.21375 -3.42804e-06 0.00113943 -0.21 -3.46825e-06 0.00113272 -0.20625
-3.50848e-06 0.00112605 -0.2025 -3.53212e-06 0.00111943 -0.19875 -3.57433e-06 0.00111161 -0.195 -3.61604e-06
0.00110258 -0.19125 -3.65748e-06 0.00109297 -0.1875 -3.6989e-06 0.00108345 -0.18375 -3.74148e-06 0.00107403
-0.18 -3.78322e-06 0.00106308 -0.17625 -3.82383e-06 0.00105063 -0.1725 -3.86392e-06 0.00103767 -0.16875
-3.90396e-06 0.00102488 -0.165 -3.94574e-06 0.00101228 -0.16125 -3.98583e-06 0.000997887 -0.1575 -4.02409e-06
0.000981756 -0.15375 -4.06183e-06 0.000965389 -0.15 -4.09951e-06 0.000949324 -0.14625 -4.13913e-06 0.000933552
-0.1425 -4.17517e-06 0.000915784 -0.13875 -4.20771e-06 0.000896081 -0.135 -4.23999e-06 0.000876644 -0.13125
-4.27231e-06 0.000857665 -0.1275 -4.27695e-06 0.000839126 -0.12375 -4.30737e-06 0.000818525 -0.12 -4.33492e-06
0.000796269 -0.11625 -4.36264e-06 0.000774656 -0.1125 -4.39055e-06 0.000753664 -0.10875 -4.38922e-06 0.000733267
-0.105 -4.41226e-06 0.00071085 -0.10125 -4.43168e-06 0.000687473 -0.0975 -4.45156e-06 0.00066489 -0.0937499
-4.47189e-06 0.000643072 -0.0899999 -4.49404e-06 0.000621982 -0.0862499 -4.51236e-06 0.000599364 -0.0824999 -4.52989e-06
0.000576684 -0.0787499 -4.54802e-06 0.000554868 -0.0749999 -4.56673e-06 0.000533881 -0.0712499 -4.58694e-06 0.000513679
-0.0674999 -4.60754e-06 0.000493401 -0.0637499 -4.6288e-06 0.000473773 -0.0599999 -4.65057e-06 0.000454912 -0.0562499
-4.67284e-06 0.000436791 -0.0524999 -4.66498e-06 0.000419367 -0.0487498 -4.6826e-06 0.000404293 -0.0449998 -4.70075e-06
0.000389743 -0.0412498 -4.71943e-06 0.000375701 -0.0374998 -4.73862e-06 0.00036215 -0.0337498 -4.75839e-06 0.000349065
-0.0299998 -4.77212e-06 0.00034044 -0.0262498 -4.7863e-06 0.000332019 -0.0224998 -4.8009e-06 0.000323799 -0.0187499
-4.81594e-06 0.000315775 -0.0149999 -4.83082e-06 0.00030794 -0.0112499 -4.84537e-06 0.000304516 -0.0074999 -4.86013e-06
0.000301129 -0.00374991 -4.87509e-06 0.000297777 6.11916e-08 -4.89026e-06 0.000294461 0.00375005 -4.87956e-06 0.000291183
0.00750005 -4.89126e-06 0.000287947 0.01125 -4.90313e-06 0.000284746 0.015 -4.91518e-06 0.000281579 0.01875
-4.92741e-06 0.000278446 0.0225 -4.92033e-06 0.000277411 0.02625 -4.93313e-06 0.000276382 0.03 -4.94602e-06
0.000275358 0.03375 -4.95898e-06 0.000274337 0.0375 -4.97203e-06 0.00027332 0.04125 -4.96385e-06 0.000272833
0.045 -4.97275e-06 0.000272349 0.04875 -4.9817e-06 0.000271865 0.0525 -4.9907e-06 0.000271383 0.05625
-4.99974e-06 0.000270901 0.06 -5.0058e-06 0.000270704 0.06375 -5.00968e-06 0.000270507 0.0675 -5.01358e-06
0.000270312 0.07125 -5.0175e-06 0.000270116 0.075 -5.02143e-06 0.00026992 0.07875 -5.00609e-06 0.000269873
0.0825 -5.00374e-06 0.000269827 0.08625 -5.00138e-06 0.000269781 0.09 -4.99902e-06 0.000269735 0.09375
-4.99666e-06 0.00026969 0.0975 -4.97464e-06 0.000269694 0.10125 -4.96476e-06 0.0002697 0.105 -4.95485e-06
0.000269706 0.10875 -4.94492e-06 0.000269712 0.1125 -4.93497e-06 0.000269718 0.11625 -4.92062e-06 0.000269736
[...]
POINT_DATA 19461
FIELD attributes 3
age 1 19461 float
0 7.30135e-05 0.000146031 0.000219052 0.000292076 0.000365104 0.00055398 0.000742856 0.000931732 0.00112062 0.00130955
0.00149851 0.00168746 0.00187642 0.0020654 0.00225441 0.00229516 0.00233592 0.00237667 0.00241743 0.00245817
0.00260646 0.00275475 0.00290305 0.00305137 0.00319971 0.00338885 0.00357799 0.00376712 0.00395628 0.00414548
0.00433472 0.00452395 0.00471319 0.00490245 0.00509176 0.0052811 0.00547049 0.00565993 0.00584939 0.00603885
0.00622831 0.00641781 0.00660737 0.00679695 0.00698654 0.00717612 0.00736575 0.00755544 0.00774515 0.00793487
0.00812459 0.00831436 0.00850418 0.00869404 0.0088839 0.00907375 0.00926367 0.00945365 0.00964366 0.00983367
0.0100237 0.0102138 0.0104039 0.0105941 0.0107842 0.0109744 0.0111647 0.011355 0.0115453 0.0117357
0.011926 0.0121165 0.012307 0.0124975 0.0126881 0.0128786 0.0130693 0.01326 0.0134507 0.0136415
0.0138322 0.0140231 0.014214 0.014405 0.014596 0.014787 0.014978 0.0151692 0.0153604 0.0155517
0.0157429 0.0159342 0.0161257 0.0163171 0.0165086 0.0167001 0.0168917 0.0170835 0.0172753 0.017467
0.0176588 0.0178507 0.0180428 0.0182349 0.018427 0.0186191 0.0188113 0.0190037 0.0191961 0.0193886
0.0195811 0.0197737 0.0199664 0.0201592 0.0203521 0.0205449 0.0207377 0.0209306 0.0211235 0.0213166
0.0215099 0.0217031 0.0218964 0.0220897 0.0222833 0.022477 0.0226707 0.0228644 0.0230582 0.0232523
0.0234465 0.0236407 0.0238349 0.0240293 0.0242238 0.0244186 0.0246133 0.0248081 0.025003 0.0251982
0.0253936 0.0255889 0.0257843 0.0259799 0.0261757 0.0263717 0.0265678 0.0267639 0.0269601 0.0271566
0.0273534 0.0275502 0.027747 0.027944 0.0281414 0.028339 0.0285366 0.0287342 0.0289321 0.0291303
0.0293288 0.0295274 0.0297259 0.0299247 0.0301239 0.0303234 0.030523 0.0307225 0.0309224 0.0311226
0.0313232 0.0315239 0.0317246 0.0319255 0.0321269 0.0323288 0.0325307 0.0327326 0.0329348 0.0331375
0.0333407 0.0335439 0.0337471 0.0339507 0.0341548 0.0343594 0.0345641 0.0347687 0.0349738 0.0351794
0.0353855 0.0355917 0.0357979 0.0360045 0.0362117 0.0364194 0.0366278 0.0368367 0.0370461 0.0372555
0.0374649 0.0376748 0.0378854 0.0380964 0.0383073 0.0385182 0.0387296 0.0389416 0.039154 0.0393663
0.0395785 0.0397912 0.0400043 0.0402177 0.0404309 0.040644 0.0408575 0.0410712 0.0412851 0.0414988
0.0417122 0.0419258 0.0421393 0.0423527 0.0425658 0.0427787 0.0429911 0.0432032 0.0434148 0.0436261
0.0438371 0.0440472 0.0442564 0.044465 0.0446732 0.044881 0.0450874 0.0452922 0.0454965 0.0457004
0.045904 0.0461054 0.0463048 0.0465039 0.0467027 0.0469011 0.0470968 0.0472906 0.0474842 0.0476776
0.0478708 0.0480606 0.048249 0.0484375 0.0486259 0.0488142 0.0489989 0.0491831 0.0493675 0.0495519
0.0497365 0.0499177 0.0500991 0.0502808 0.0504626 0.0506446 0.0508246 0.0510047 0.051185 0.0513654
0.0515461 0.051726 0.051906 0.052086 0.0522662 0.0524464 0.0526267 0.0528071 0.0529876 0.0531681
0.0533488 0.0535294 0.0537101 0.0538908 0.0540715 0.0542526 0.0544337 0.0546147 0.0547958 0.0549769
0.0551583 0.0553397 0.0555211 0.0557025 0.055884 0.0560657 0.0562474 0.0564292 0.0566109 0.0567926
0.0569747 0.0571567 0.0573387 0.0575208 0.0577028 0.0578851 0.0580675 0.0582498 0.0584321 0.0586144
0.058797 0.0589796 0.0591622 0.0593449 0.0595275 0.0597104 0.0598933 0.0600762 0.0602591 0.060442
0.0606253 0.0608085 0.0609917 0.0611749 0.0613581 0.0615417 0.0617252 0.0619087 0.0620922 0.0622758
0.0624596 0.0626434 0.0628272 0.0630111 0.0631949 0.063379 0.0635631 0.0637472 0.0639313 0.0641154
0.0642997 0.0644841 0.0646685 0.0648528 0.0650372 0.0652218 0.0654064 0.065591 0.0657756 0.0659602
0.066145 0.0663298 0.0665146 0.0666995 0.0668843 0.0670693 0.0672545 0.0674396 0.0676248 0.06781
0.0679952 0.0681805 0.0683658 0.0685512 0.0687365 0.0689218 0.0691073 0.0692928 0.0694782 0.0696637
0.0698491 0.0700347 0.0702203 0.0704059 0.0705915 0.0707771 0.0709627 0.0711484 0.0713341 0.0715197
0.0717054 0.0718912 0.0720769 0.0722627 0.0724485 0.0726342 0.07282 0.0730059 0.0731917 0.0733775
0.0735633 0.0737492 0.073935 0.0741209 0.0743067 0.0744926 0.0746785 0.0748644 0.0750503 0.0752361
0.075422 0.0756079 0.0757938 0.0759797 0.0761656 0.0763514 0.0765373 0.0767232 0.076909 0.0770949
0.0772808 0.0774666 0.0776524 0.0778383 0.0780241 0.0782099 0.0783957 0.0785815 0.0787673 0.0789531
0.0791389 0.0793246 0.0795104 0.0796962 0.0798819 0.0800677 0.0802534 0.0804392 0.0806249 0.0808107
0.0808475 0.0808844 0.0809213 0.0809582 0.080989 0.0811391 0.0812892 0.0814393 0.0815893 0.0817394
0.0819252 0.0821109 0.0822967 0.0824825 0.0826682 0.082854 0.0830398 0.0832256 0.0834114 0.0835972
0.083783 0.0839689 0.0841547 0.0843406 0.0845264 0.0847123 0.0848983 0.0850842 0.0852701 0.085456
0.085642 0.085828 0.086014 0.0861999 0.0863859 0.086572 0.086758 0.0869441 0.0871301 0.0873162
0.0875023 0.0876884 0.0878745 0.0880606 0.0882467 0.0884329 0.0886191 0.0888052 0.0889914 0.0891776
0.0893638 0.08955 0.0897363 0.0899225 0.0901087 0.090295 0.0904813 0.0906675 0.0908538 0.0910401
0.0912264 0.0914127 0.0915991 0.0917854 0.0919717 0.0921581 0.0923444 0.0925308 0.0927172 0.0929035
0.09309 0.0932764 0.0934628 0.0936492 0.0938356 0.094022 0.0942085 0.0943949 0.0945814 0.0947678
0.0949543 0.0951408 0.0953273 0.0955138 0.0957002 0.0958868 0.0960733 0.0962599 0.0964464 0.0966329
0.0968195 0.0970062 0.0971928 0.0973795 0.0975661 0.0977528 0.0979395 0.0981262 0.098313 0.0984997
0.0986864 0.0988733 0.0990601 0.0992469 0.0994337 0.0996205 0.0998074 0.0999943 0.100181 0.100368
0.100555 0.100742 0.100929 0.101116 0.101303 0.10149 0.101677 0.101864 0.102051 0.102238
0.102425 0.102612 0.102799 0.102986 0.103174 0.103361 0.103548 0.103736 0.103923 0.104111
0.104298 0.104486 0.104674 0.104861 0.105049 0.105237 0.105425 0.105613 0.105801 0.105989
0.106177 0.106365 0.106554 0.106742 0.106931 0.107119 0.107308 0.107497 0.107685 0.107874
0.108063 0.108252 0.108441 0.10863 0.108819 0.109008 0.109197 0.109387 0.109576 0.109765
0.109955 0.110144 0.110334 0.110523 0.110713 0.110902 0.111092 0.111282 0.111471 0.111661
0.111851 0.11204 0.11223 0.11242 0.11261 0.112799 0.112989 0.113179 0.113369 0.113559
0.113748 0.113938 0.114128 0.114318 0.114508 0.114698 0.114888 0.115078 0.115268 0.115458
0.115648 0.115838 0.116028 0.116218 0.116408 0.116598 0.116788 0.116978 0.117168 0.117358
0.117548 0.117738 0.117928 0.118118 0.118309 0.118498 0.118689 0.118879 0.119069 0.119259
0.119449 0.119639 0.119829 0.120019 0.120209 0.120399 0.120589 0.120779 0.120969 0.121159
0.121349 0.121539 0.121729 0.121919 0.122109 0.122299 0.122489 0.122679 0.122869 0.123059
0.123249 0.123438 0.123628 0.123818 0.124008 0.124198 0.124388 0.124578 0.124768 0.124958
0.125147 0.125337 0.125527 0.125717 0.125907 0.126097 0.126287 0.126476 0.126666 0.126856
0.127046 0.127236 0.127426 0.127615 0.127805 0.127995 0.128185 0.128375 0.128564 0.128754
0.128944 0.129134 0.129323 0.129513 0.129703 0.129893 0.130082 0.130272 0.130462 0.130652
0.130841 0.131031 0.131221 0.131411 0.1316 0.13179 0.13198 0.132169 0.132359 0.132549
0.132738 0.132928 0.133118 0.133308 0.133498 0.133687 0.133877 0.134066 0.134256 0.134446
0.134635 0.134825 0.135015 0.135205 0.135394 0.135584 0.135773 0.135963 0.136153 0.136343
0.136532 0.136722 0.136911 0.137101 0.137291 0.13748 0.13767 0.137859 0.138049 0.138239
0.138428 0.138618 0.138807 0.138997 0.139187 0.139376 0.139566 0.139755 0.139945 0.140135
0.140324 0.140513 0.140703 0.140893 0.141082 0.141271 0.141461 0.141651 0.14184 0.14203
0.142219 0.142408 0.142598 0.142788 0.142977 0.143166 0.143356 0.143545 0.143735 0.143925
0.144113 0.144303 0.144492 0.144682 0.144872 0.14506 0.14525 0.145439 0.145629 0.145818
0.146007 0.146196 0.146386 0.146576 0.146765 0.146954 0.147143 0.147332 0.147522 0.147711
0.1479 0.148089 0.148278 0.148467 0.148657 0.148845 0.149034 0.149223 0.149412 0.149602
0.14979 0.149979 0.150168 0.150357 0.150546 0.150734 0.150923 0.151112 0.151301 0.15149
0.151866 0.152243 0.152619 0.152996 0.153373 0.154124 0.154875 0.155626 0.156377 0.157128
0.158629 0.160129 0.16163 0.163131 0.164631 0.166131 0.167632 0.169132 0.170632 0.172133
0.175133 0.178133 0.181133 0.184133 0.187134 0.193134 0.199134 0.205134 0.211134 0.217134
0.223134 0.229134 0.235134 0.241134 0.247134 0.253135 0.259135 0.265135 0.271135 0.277135
0.283135 0.289135 0.295135 0.301135 0.307135 0.313135 0.319135 0.325135 0.331135 0.337135
0.343135 0.349135 0.355135 0.361135 0.367135 0.373135 0.379135 0.385135 0.391135 0.397135
0.403135 0.403199 0 7.36844e-05 0.000147373 0.000221065 0.000294761 0.000368461 0.000511573 0.000654705
0.000797855 0.000941024 0.00108169 0.00112973 0.00117777 0.00122582 0.00127386 0.00132191 0.0015127 0.00170352
0.00189437 0.00208526 0.00227619 0.00246715 0.00265815 0.00284919 0.00304026 0.00323137 0.00342252 0.00361372
0.00380495 0.00399622 0.00418753 0.00437888 0.00457028 0.00476172 0.0049532 0.00514473 0.0053363 0.00552791
0.00571958 0.00591129 0.00610304 0.00629484 0.0064867 0.0066786 0.00687055 0.00706255 0.0072546 0.00744671
0.00763887 0.00783108 0.00802335 0.00821567 0.00840804 0.00860048 0.00879297 0.00898552 0.00917813 0.0093708
0.00956354 0.00975633 0.00994919 0.0101421 0.0103351 0.0105281 0.0107213 0.0109145 0.0111077 0.011301
0.0114944 0.0116879 0.0118815 0.0120751 0.0122688 0.0124625 0.0126564 0.0128503 0.0130443 0.0132384
0.0134326 0.0136269 0.0138212 0.0140156 0.0142102 0.0144048 0.0145995 0.0147943 0.0149892 0.0151842
0.0153793 0.0155744 0.0157697 0.0159651 0.0161606 0.0163562 0.0165519 0.0167478 0.0169437 0.0171397
0.0173359 0.0175322 0.0177286 0.0179251 0.0181218 0.0183186 0.0185155 0.0187125 0.0189097 0.019107
0.0193044 0.019502 0.0196998 0.0198976 0.0200957 0.0202938 0.0204922 0.0206907 0.0208893 0.0210881
0.0212871 0.0214863 0.0216856 0.0218851 0.0220848 0.0222846 0.0224847 0.0226849 0.0228853 0.023086
0.0232868 0.0234878 0.0236891 0.0238905 0.0240922 0.0242941 0.0244963 0.0246986 0.0249012 0.025104
0.0253071 0.0255105 0.025714 0.0259179 0.026122 0.0263264 0.0265311 0.026736 0.0269412 0.0271468
0.0273526 0.0275588 0.0277653 0.027972 0.0281792 0.0283866 0.0285944 0.0288026 0.0290111 0.02922
0.0294292 0.0296389 0.0298489 0.0300594 0.0302702 0.0304815 0.0306932 0.0309054 0.031118 0.031331
0.0315446 0.0317586 0.0319731 0.0321881 0.0324037 0.0326197 0.0328364 0.0330536 0.0332713 0.0334896
0.0337085 0.0339281 0.0341482 0.034369 0.0345905 0.0348127 0.0350355 0.0352591 0.0354833 0.0357083
0.0359341 0.0361606 0.036388 0.0366161 0.0368451 0.037075 0.0373058 0.0375374 0.0377699 0.0380034
0.0382379 0.0384733 0.0387097 0.0389472 0.0391857 0.0394254 0.0396661 0.039908 0.0401509 0.040395
0.0406402 0.0408867 0.0411344 0.0413834 0.0416337 0.0418852 0.0421381 0.0423923 0.0426477 0.0429043
0.043162 0.043421 0.0436818 0.0439437 0.0442068 0.044471 0.0447363 0.0450036 0.0452713 0.0455396
0.0458084 0.0460777 0.0463495 0.0464756 0.0466017 0.0467277 0.0468536 0.0469331 0.0470879 0.0472425
0.0473969 0.0475511 0.0477064 0.0479771 0.0482461 0.0485132 0.0487784 0.0490467 0.0491921 0.0493363
0.0494794 0.0496213 0.049731 0.049852 0.0499722 0.0500916 0.0502102 0.0503291 0.0505764 0.0508185
0.0510557 0.0512882 0.0515173 0.0515323 0.0515474 0.0515624 0.0515773 0.0515924 0.0517993 0.0520017
0.0521996 0.0523933 0.0525809 0.0526919 0.0528012 0.0529089 0.0530152 0.0531485 0.0532232 0.0532972
0.0533706 0.0534434 0.053515 0.0536893 0.0538599 0.0540271 0.0541911 0.0543487 0.0544867 0.0546232
0.0547582 0.0548917 0.0551144 0.0551285 0.0551426 0.0551567 0.0551707 0.0551867 0.0553187 0.0554502
0.0555812 0.0557116 0.0558406 0.0559835 0.0561265 0.0562696 0.0564129 0.0565561 0.0566993 0.0568429
0.0569868 0.057131 0.0572756 0.0574206 0.057566 0.0577117 0.0578577 0.0580042 0.0581509 0.058298
0.0584454 0.0585931 0.0587411 0.0588894 0.0590381 0.0591871 0.0593364 0.059486 0.0596359 0.0597861
0.0599366 0.0600874 0.0602385 0.0603899 0.0605416 0.0606936 0.0608459 0.0609986 0.0611515 0.0613048
0.0614584 0.0616123 0.0617666 0.0619212 0.0620761 0.0622314 0.062387 0.062543 0.0626993 0.062856
0.063013 0.0631704 0.0633281 0.0634862 0.0636446 0.0638034 0.0639625 0.0641219 0.0642818 0.0644419
0.0646024 0.0647632 0.0649244 0.0650859 0.0652478 0.0654099 0.0655724 0.0657352 0.0658984 0.0660618
0.0662255 0.0663896 0.0665539 0.0667185 0.0668835 0.0670487 0.0672142 0.0673799 0.067546 0.0677123
0.0678788 0.0680456 0.0682127 0.06838 0.0685476 0.0687153 0.0688834 0.0690516 0.0692201 0.0693888
0.0695577 0.0697268 0.0698961 0.0700656 0.0702353 0.0704052 0.0705752 0.0707455 0.0709159 0.0710865
0.0712573 0.0714282 0.0715993 0.0717705 0.0719419 0.0721135 0.0722851 0.072457 0.0726289 0.072801
0.0729732 0.0731455 0.073318 0.0734905 0.0736632 0.073836 0.0740089 0.0741818 0.0743549 0.074528
0.0747012 0.0748745 0.0750478 0.0752212 0.0753947 0.0755682 0.0757418 0.0759154 0.076089 0.0762627
0.0764363 0.07661 0.0767837 0.0769574 0.0771311 0.0773048 0.0774785 0.0776521 0.0778258 0.0779994
0.0781729 0.0783465 0.0785199 0.0786934 0.0788668 0.0790402 0.0792135 0.0793868 0.07956 0.0797332
0.0799063 0.0800794 0.0802525 0.0804255 0.0805985 0.0807714 0.0809444 0.0811174 0.0811861 0.0812549
0.0813236 0.0813924 0.0814583 0.081563 0.0816678 0.0817726 0.0818774 0.0819822 0.0821552 0.0823283
0.0825014 0.0826747 0.0828479 0.0830213 0.0831947 0.0833681 0.0835417 0.0837153 0.0838891 0.084063
0.0842369 0.084411 0.0845852 0.0847595 0.0849339 0.0851084 0.085283 0.0854577 0.0856325 0.0858075
0.0859826 0.0861578 0.0863331 0.0865085 0.086684 0.0868596 0.0870354 0.0872112 0.0873872 0.0875633
0.0877395 0.0879158 0.0880922 0.0882687 0.0884453 0.088622 0.0887988 0.0889757 0.0891527 0.0893298
0.089507 0.0896844 0.0898618 0.0900393 0.0902168 0.0903945 0.0905722 0.0907501 0.090928 0.091106
0.0912842 0.0914624 0.0916407 0.091819 0.0919975 0.092176 0.0923546 0.0925333 0.0927121 0.0928909
0.0930699 0.0932489 0.093428 0.0936073 0.0937865 0.0939659 0.0941453 0.0943248 0.0945045 0.0946842
0.094864 0.0950439 0.0952239 0.0954041 0.0955842 0.0957645 0.0959449 0.0961253 0.096306 0.0964867
0.0966675 0.0968485 0.0970296 0.0972109 0.0973923 0.0975739 0.0977557 0.0979376 0.0981202 0.098303
0.098486 0.0986692 0.0988525 0.0990352 0.099218 0.0994008 0.0995838 0.0997668 0.0999503 0.100134
0.100317 0.100501 0.100685 0.100869 0.101053 0.101237 0.101422 0.101607 0.101792 0.101977
0.102163 0.102349 0.102535 0.102722 0.102909 0.103097 0.103285 0.103474 0.103664 0.103854
0.104045 0.104237 0.10443 0.104623 0.104818 0.105013 0.105208 0.105405 0.105604 0.105803
0.106004 0.106206 0.106409 0.106613 0.106818 0.107025 0.107233 0.107442 0.107653 0.107866
0.10808 0.108296 0.108513 0.108731 0.108951 0.109173 0.109396 0.109621 0.109847 0.110076
0.110306 0.110537 0.11077 0.111005 0.111241 0.111478 0.111718 0.111958 0.112201 0.112444
0.11269 0.112936 0.113184 0.113434 0.113684 0.113936 0.11419 0.114444 0.1147 0.114956
0.115214 0.115473 0.115732 0.115993 0.116255 0.116517 0.116781 0.117045 0.117309 0.117575
0.11784 0.118107 0.118374 0.118641 0.118909 0.119177 0.119446 0.119715 0.119984 0.120253
0.120523 0.120793 0.121062 0.121065 0.121067 0.12107 0.121073 0.121075 0.121342 0.12161
0.121877 0.122144 0.122412 0.122682 0.122951 0.123221 0.123491 0.12376 0.124029 0.124298
0.124567 0.124836 0.125104 0.125372 0.12564 0.125908 0.126175 0.126443 0.126709 0.126976
0.127242 0.127508 0.127774 0.128039 0.128305 0.12857 0.128835 0.129099 0.129363 0.129627
0.12989 0.130154 0.130417 0.130679 0.130942 0.131205 0.131467 0.131729 0.13199 0.132252
0.132513 0.132774 0.133035 0.133296 0.133556 0.133817 0.134077 0.134337 0.134597 0.134856
0.135116 0.135375 0.135635 0.135893 0.136152 0.136411 0.13667 0.136929 0.137187 0.137445
0.137704 0.137962 0.138221 0.138478 0.138736 0.138994 0.139252 0.13951 0.139767 0.140024
0.140282 0.140539 0.140796 0.141052 0.141309 0.141565 0.141822 0.142078 0.142334 0.142589
0.142845 0.143101 0.143356 0.143376 0.143396 0.143416 0.143436 0.143455 0.143691 0.143926
0.14416 0.144395 0.144629 0.144883 0.145137 0.145391 0.145645 0.145898 0.146151 0.146404
0.146657 0.14691 0.147162 0.147413 0.147665 0.147918 0.148169 0.148421 0.14867 0.148921
0.149172 0.149423 0.149673 0.149921 0.150171 0.15042 0.15067 0.150918 0.151165 0.151412
0.151661 0.151909 0.152156 0.1524 0.152647 0.152894 0.153141 0.153387 0.15363 0.153875
0.154121 0.154367 0.154611 0.154853 0.155097 0.155342 0.155586 0.15583 0.156071 0.156313
0.156557 0.156801 0.157043 0.157283 0.157525 0.157767 0.15801 0.158251 0.15849 0.158731
0.158972 0.159213 0.159453 0.159692 0.159931 0.160171 0.160411 0.16065 0.160887 0.161125
0.161364 0.161602 0.16184 0.162077 0.162314 0.162551 0.162788 0.163025 0.16326 0.163496
0.163732 0.163967 0.164203 0.164437 0.164672 0.164906 0.16514 0.165374 0.16547 0.165567
0.165663 0.165759 0.165854 0.166222 0.166589 0.166956 0.167318 0.167662 0.168485 0.16931
0.17013 0.170946 0.171753 0.173293 0.174838 0.17638 0.177917 0.179451 0.180963 0.182482
0.183999 0.185515 0.187029 0.190041 0.193056 0.196069 0.199081 0.202091 0.208097 0.214105
0.220112 0.226119 0.232125 0.238127 0.244131 0.250135 0.256139 0.262143 0.268144 0.274147
0.28015 0.286153 0.292156 0.298157 0.30416 0.310163 0.316165 0.322168 0.328168 0.334171
0.340173 0.346175 0.352177 0.358178 0.36418 0.370181 0.376183 0.382185 0.388185 0.394187
0.400189 0.40619 0.412192 0.418192 0.422334 0 7.36603e-05 0.000147325 0.000220995 0.000294669
0.000368348 0.000515351 0.000662373 0.000809415 0.000956476 0.0011013 0.00114534 0.00118938 0.00123342 0.00127747
0.00132151 0.00151224 0.001703 0.00189379 0.00208462 0.00227548 0.00246638 0.00265731 0.00284829 0.00303929
0.00323034 0.00342142 0.00361254 0.0038037 0.0039949 0.00418614 0.00437742 0.00456874 0.00476011 0.00495151
0.00514296 0.00533445 0.00552599 0.00571757 0.0059092 0.00610087 0.00629259 0.00648435 0.00667616 0.00686803
0.00705994 0.0072519 0.00744391 0.00763597 0.00782809 0.00802026 0.00821248 0.00840475 0.00859709 0.00878948
0.00898192 0.00917442 0.00936698 0.0095596 0.00975228 0.00994502 0.0101378 0.0103307 0.0105236 0.0107166
0.0109097 0.0111028 0.011296 0.0114893 0.0116826 0.011876 0.0120695 0.0122631 0.0124567 0.0126504
0.0128442 0.013038 0.013232 0.013426 0.0136201 0.0138143 0.0140085 0.0142029 0.0143973 0.0145919
0.0147865 0.0149812 0.015176 0.0153709 0.0155659 0.015761 0.0159562 0.0161515 0.0163469 0.0165424
0.0167381 0.0169338 0.0171296 0.0173256 0.0175216 0.0177178 0.0179141 0.0181105 0.018307 0.0185037
0.0187005 0.0188974 0.0190945 0.0192917 0.019489 0.0196865 0.0198841 0.0200818 0.0202797 0.0204777
0.0206759 0.0208743 0.0210728 0.0212715 0.0214703 0.0216693 0.0218685 0.0220679 0.0222674 0.0224671
0.022667 0.0228671 0.0230674 0.0232678 0.0234685 0.0236694 0.0238705 0.0240718 0.0242733 0.024475
0.024677 0.0248792 0.0250816 0.0252843 0.0254872 0.0256904 0.0258938 0.0260975 0.0263015 0.0265057
0.0267102 0.026915 0.0271201 0.0273255 0.0275313 0.0277373 0.0279436 0.0281503 0.0283573 0.0285647
0.0287724 0.0289805 0.0291889 0.0293978 0.029607 0.0298166 0.0298587 0.0299007 0.0299428 0.0299849
0.030026 0.0301945 0.0303633 0.0305324 0.0307018 0.0308715 0.0310837 0.0312964 0.0315097 0.0317234
0.0319377 0.0321524 0.0323678 0.0325837 0.0328002 0.0330173 0.0332349 0.0334533 0.0336723 0.033892
0.0341123 0.0343334 0.0345552 0.0347778 0.0350012 0.0352254 0.0354503 0.0356762 0.035903 0.0361307
0.0363594 0.036589 0.0368197 0.0370515 0.0372845 0.0375185 0.0377536 0.03799 0.0382278 0.0384669
0.0387073 0.0389491 0.0391925 0.0394376 0.0396844 0.0399327 0.0401827 0.0404346 0.0406885 0.0409444
0.0412024 0.0414624 0.041725 0.0419901 0.0422578 0.0425281 0.0428017 0.0430783 0.043358 0.043641
0.0439278 0.0442174 0.0445111 0.044809 0.0451111 0.0454187 0.0457284 0.0460428 0.0463617 0.0466853
0.047019 0.0471746 0.0473315 0.0474894 0.0476483 0.0477256 0.0479325 0.0481408 0.0483505 0.0485613
0.0487806 0.04908 0.0493815 0.0496846 0.0499867 0.0500776 0.0501976 0.0503174 0.0504368 0.0505558
0.0506795 0.0508756 0.0510696 0.0512614 0.051451 0.0515745 0.0517792 0.0519804 0.052178 0.0523721
0.0525778 0.0526039 0.05263 0.0526559 0.0526818 0.0527069 0.0529076 0.0531026 0.0532926 0.0534778