# vtk DataFile Version 2.0
tracks
ASCII
DATASET POLYDATA
POINTS 19469 float
-1.001 1e-07 0.0011 -0.99955 9.87159e-08 0.00110002 -0.9981 9.74268e-08 0.00110004 -0.99665 9.61326e-08
0.00110007 -0.9952 9.48333e-08 0.0011001 -0.99375 9.3529e-08 0.00110014 -0.99 9.01244e-08 0.00110024
-0.98625 8.67363e-08 0.00110034 -0.9825 8.33473e-08 0.00110044 -0.97875 7.99332e-08 0.00110054 -0.975
7.6471e-08 0.00110068 -0.97125 7.29464e-08 0.00110083 -0.9675 6.94349e-08 0.00110098 -0.96375 6.59223e-08
0.00110113 -0.96 6.23846e-08 0.00110128 -0.95625 5.87988e-08 0.00110145 -0.9525 5.51598e-08 0.00110162
-0.94875 5.15248e-08 0.00110179 -0.945 4.78886e-08 0.00110196 -0.94125 4.42286e-08 0.00110213 -0.9375
4.05234e-08 0.00110231 -0.93375 3.67654e-08 0.00110248 -0.93 3.30138e-08 0.00110266 -0.92625 2.92609e-08
0.00110284 -0.9225 2.54853e-08 0.00110302 -0.91875 2.16672e-08 0.0011032 -0.915 1.78022e-08 0.00110339
-0.91125 1.39401e-08 0.00110357 -0.9075 1.00766e-08 0.00110376 -0.90375 6.19038e-09 0.00110395 -0.9
2.26171e-09 0.00110414 -0.899573 1.80937e-09 0.00110416 -0.899146 1.35656e-09 0.00110418 -0.898719 9.03228e-10
0.0011042 -0.898292 4.49377e-10 0.00110423 -0.897869 1.8438e-17 0.00110425 -0.894545 -3.54008e-09 0.00110442
-0.891222 -7.1117e-09 0.0011046 -0.887898 -1.07149e-08 0.00110478 -0.884574 -1.43255e-08 0.00110496 -0.88125
-1.79373e-08 0.00110514 -0.8775 -2.201e-08 0.00110535 -0.87375 -2.61219e-08 0.00110556 -0.87 -3.02695e-08
0.00110577 -0.86625 -3.44364e-08 0.00110599 -0.8625 -3.8605e-08 0.0011062 -0.85875 -4.27672e-08 0.00110642
-0.855 -4.6971e-08 0.00110664 -0.85125 -5.1208e-08 0.00110687 -0.8475 -5.54633e-08 0.0011071 -0.84375
-5.97204e-08 0.00110733 -0.84 -6.39751e-08 0.00110756 -0.83625 -6.82673e-08 0.0011078 -0.8325 -7.25923e-08
0.00110804 -0.82875 -7.69354e-08 0.00110828 -0.825 -8.12805e-08 0.00110853 -0.82125 -8.56091e-08 0.00110877
-0.8175 -8.99905e-08 0.00110903 -0.81375 -9.44057e-08 0.00110928 -0.81 -9.88396e-08 0.00110955 -0.80625
-1.03276e-07 0.00110981 -0.8025 -1.07689e-07 0.00111007 -0.79875 -1.12163e-07 0.00111034 -0.795 -1.16672e-07
0.00111061 -0.79125 -1.212e-07 0.00111089 -0.7875 -1.2573e-07 0.00111117 -0.78375 -1.30254e-07 0.00111145
-0.78 -1.34823e-07 0.00111174 -0.77625 -1.39427e-07 0.00111204 -0.7725 -1.44051e-07 0.00111234 -0.76875
-1.48678e-07 0.00111264 -0.765 -1.53298e-07 0.00111294 -0.76125 -1.57965e-07 0.00111324 -0.7575 -1.62668e-07
0.00111356 -0.75375 -1.67392e-07 0.00111388 -0.75 -1.72119e-07 0.0011142 -0.74625 -1.76801e-07 0.00111452
-0.7425 -1.81573e-07 0.00111485 -0.73875 -1.86383e-07 0.00111519 -0.735 -1.91216e-07 0.00111554 -0.73125
-1.96052e-07 0.00111588 -0.7275 -2.00833e-07 0.00111623 -0.72375 -2.05719e-07 0.00111658 -0.72 -2.10648e-07
0.00111695 -0.71625 -2.15602e-07 0.00111732 -0.7125 -2.20559e-07 0.00111769 -0.70875 -2.25451e-07 0.00111806
-0.705 -2.30465e-07 0.00111844 -0.70125 -2.35528e-07 0.00111883 -0.6975 -2.40619e-07 0.00111923 -0.69375
-2.45714e-07 0.00111962 -0.69 -2.508e-07 0.00112002 -0.68625 -2.55959e-07 0.00112043 -0.6825 -2.61172e-07
0.00112085 -0.67875 -2.66418e-07 0.00112128 -0.675 -2.71668e-07 0.00112171 -0.67125 -2.76909e-07 0.00112214
-0.6675 -2.82233e-07 0.00112258 -0.66375 -2.8762e-07 0.00112303 -0.66 -2.93044e-07 0.00112349 -0.65625
-2.98473e-07 0.00112395 -0.6525 -3.03793e-07 0.00112441 -0.64875 -3.09306e-07 0.00112488 -0.645 -3.1489e-07
0.00112537 -0.64125 -3.20518e-07 0.00112586 -0.6375 -3.2615e-07 0.00112636 -0.63375 -3.31774e-07 0.00112685
-0.63 -3.37498e-07 0.00112736 -0.62625 -3.43299e-07 0.00112788 -0.6225 -3.49146e-07 0.00112842 -0.61875
-3.54999e-07 0.00112895 -0.615 -3.60845e-07 0.00112948 -0.61125 -3.66803e-07 0.00113003 -0.6075 -3.72847e-07
0.00113059 -0.60375 -3.78945e-07 0.00113116 -0.6 -3.85049e-07 0.00113173 -0.59625 -3.91147e-07 0.0011323
-0.5925 -3.97279e-07 0.00113288 -0.58875 -4.03416e-07 0.00113345 -0.585 -4.09614e-07 0.00113403 -0.58125
-4.15911e-07 0.00113463 -0.5775 -4.22092e-07 0.00113525 -0.57375 -4.28514e-07 0.00113586 -0.57 -4.34942e-07
0.00113648 -0.56625 -4.41435e-07 0.0011371 -0.5625 -4.48033e-07 0.00113774 -0.55875 -4.54484e-07 0.00113841
-0.555 -4.61217e-07 0.00113907 -0.55125 -4.67958e-07 0.00113973 -0.5475 -4.74766e-07 0.0011404 -0.54375
-4.81681e-07 0.00114109 -0.54 -4.88697e-07 0.0011418 -0.53625 -4.95755e-07 0.00114251 -0.5325 -5.02823e-07
0.00114322 -0.52875 -5.09962e-07 0.00114394 -0.525 -5.17213e-07 0.00114468 -0.52125 -5.24226e-07 0.00114544
-0.5175 -5.31633e-07 0.00114619 -0.51375 -5.39049e-07 0.00114695 -0.51 -5.46543e-07 0.00114773 -0.50625
-5.54154e-07 0.00114852 -0.5025 -5.61472e-07 0.00114933 -0.49875 -5.69254e-07 0.00115014 -0.495 -5.77048e-07
0.00115095 -0.49125 -5.84922e-07 0.00115177 -0.4875 -5.92918e-07 0.00115261 -0.48375 -6.01042e-07 0.00115347
-0.48 -6.09223e-07 0.00115433 -0.47625 -6.17418e-07 0.00115519 -0.4725 -6.25695e-07 0.00115607 -0.46875
-6.34095e-07 0.00115696 -0.465 -6.42629e-07 0.00115787 -0.46125 -6.51228e-07 0.00115878 -0.4575 -6.59842e-07
0.00115969 -0.45375 -6.68541e-07 0.00116061 -0.45 -6.77365e-07 0.00116155 -0.44625 -6.86334e-07 0.0011625
-0.4425 -6.95374e-07 0.00116346 -0.43875 -7.04431e-07 0.00116441 -0.435 -7.13578e-07 0.00116538 -0.43125
-7.22853e-07 0.00116635 -0.4275 -7.31446e-07 0.00116734 -0.42375 -7.40959e-07 0.00116833 -0.42 -7.50493e-07
0.00116932 -0.41625 -7.60113e-07 0.00117032 -0.4125 -7.69854e-07 0.00117132 -0.40875 -7.78749e-07 0.00117233
-0.405 -7.88744e-07 0.00117334 -0.40125 -7.98761e-07 0.00117435 -0.3975 -8.08854e-07 0.00117536 -0.39375
-8.19048e-07 0.00117637 -0.39 -8.29406e-07 0.00117738 -0.38625 -8.39863e-07 0.00117838 -0.3825 -8.50345e-07
0.00117939 -0.37875 -8.60887e-07 0.00118039 -0.375 -8.71505e-07 0.00118137 -0.37125 -8.82283e-07 0.00118234
-0.3675 -8.93172e-07 0.0011833 -0.36375 -9.04088e-07 0.00118427 -0.36 -9.15053e-07 0.00118521 -0.35625
-9.26075e-07 0.00118612 -0.3525 -9.35498e-07 0.00118699 -0.34875 -9.46808e-07 0.00118785 -0.345 -9.58148e-07
0.00118872 -0.34125 -9.69509e-07 0.00118955 -0.3375 -9.80887e-07 0.00119031 -0.33375 -9.92424e-07 0.001191
-0.33 -1.0041e-06 0.0011917 -0.32625 -1.0158e-06 0.00119239 -0.3225 -1.02748e-06 0.00119301 -0.31875
-1.03911e-06 0.00119353 -0.315 -1.05087e-06 0.00119395 -0.31125 -1.06277e-06 0.00119436 -0.3075 -1.07472e-06
0.00119477 -0.30375 -1.08656e-06 0.00119508 -0.3 -1.09827e-06 0.00119522 -0.29625 -1.10697e-06 0.0011952
-0.2925 -1.11863e-06 0.00119495 -0.28875 -1.13005e-06 0.00119447 -0.285 -1.14129e-06 0.00119381 -0.28125
-1.15256e-06 0.00119316 -0.2775 -1.16045e-06 0.00119251 -0.27375 -1.17175e-06 0.00119152 -0.27 -1.18262e-06
0.00119019 -0.26625 -1.1932e-06 0.00118863 -0.2625 -1.20381e-06 0.00118706 -0.25875 -1.21041e-06 0.0011855
-0.255 -1.22087e-06 0.00118346 -0.25125 -1.23067e-06 0.00118094 -0.2475 -1.24002e-06 0.00117808 -0.24375
-1.24938e-06 0.00117523 -0.24 -1.2592e-06 0.00117239 -0.23625 -1.26821e-06 0.00116891 -0.2325 -1.27626e-06
0.00116481 -0.22875 -1.28368e-06 0.00116029 -0.225 -1.29111e-06 0.00115579 -0.22125 -1.29305e-06 0.00115131
-0.2175 -1.2995e-06 0.00114596 -0.21375 -1.30437e-06 0.00113976 -0.21 -1.30829e-06 0.00113306 -0.20625
-1.31223e-06 0.0011264 -0.2025 -1.31e-06 0.00111978 -0.19875 -1.31275e-06 0.00111196 -0.195 -1.31337e-06
0.00110294 -0.19125 -1.3129e-06 0.00109333 -0.1875 -1.31248e-06 0.00108382 -0.18375 -1.31256e-06 0.0010744
-0.18 -1.30991e-06 0.00106346 -0.17625 -1.30445e-06 0.00105101 -0.1725 -1.29791e-06 0.00103805 -0.16875
-1.29151e-06 0.00102527 -0.165 -1.28587e-06 0.00101267 -0.16125 -1.27648e-06 0.000998282 -0.1575 -1.26335e-06
0.000982155 -0.15375 -1.24945e-06 0.000965789 -0.15 -1.23586e-06 0.000949726 -0.14625 -1.22316e-06 0.000933957
-0.1425 -1.20462e-06 0.00091619 -0.13875 -1.18035e-06 0.000896488 -0.135 -1.15614e-06 0.00087705 -0.13125
-1.1325e-06 0.000858069 -0.1275 -1.10209e-06 0.000839533 -0.12375 -1.07317e-06 0.000818929 -0.12 -1.03907e-06
0.000796669 -0.11625 -1.00592e-06 0.000775052 -0.1125 -9.73691e-07 0.000754056 -0.10875 -9.35838e-07 0.00073366
-0.105 -8.95088e-07 0.000711239 -0.10125 -8.48843e-07 0.000687858 -0.0975 -8.04054e-07 0.00066527 -0.0937499
-7.60667e-07 0.000643447 -0.0899999 -7.18875e-07 0.000622361 -0.0862499 -6.6947e-07 0.000599736 -0.0824999 -6.18254e-07
0.000577049 -0.0787499 -5.68811e-07 0.000555225 -0.0749999 -5.21071e-07 0.00053423 -0.0712499 -4.75081e-07 0.000514031
-0.0674999 -4.24154e-07 0.000493744 -0.0637499 -3.73956e-07 0.000474105 -0.0599999 -3.25503e-07 0.000455234 -0.0562499
-2.78729e-07 0.000437102 -0.0524999 -2.31744e-07 0.00041968 -0.0487498 -1.74141e-07 0.000404598 -0.0449998 -1.18236e-07
0.000390041 -0.0412498 -6.39736e-08 0.000375991 -0.0374998 -1.12982e-08 0.000362432 -0.0373331 -9.02422e-09 0.00036185
-0.0371664 -6.71356e-09 0.00036128 -0.0369996 -4.36642e-09 0.00036072 -0.0368329 -1.98275e-09 0.000360171 -0.0366913
7.18959e-11 0.000359714 -0.033103 5.28242e-08 0.000348329 -0.0295147 1.15294e-07 0.000340097 -0.0259264 1.76703e-07
0.000332051 -0.0223381 2.37075e-07 0.000324189 -0.0187499 2.96433e-07 0.000316506 -0.0149999 3.55689e-07 0.00030866
-0.0112499 4.28011e-07 0.000305231 -0.0074999 4.99972e-07 0.000301839 -0.00374991 5.71576e-07 0.000298483 6.11904e-08
6.4283e-07 0.000295163 0.00375005 7.13552e-07 0.000291878 0.00750005 7.83578e-07 0.00028863 0.01125 8.53215e-07
0.000285416 0.015 9.22468e-07 0.000282238 0.01875 9.91343e-07 0.000279093 0.0225 1.06895e-06 0.000278056
0.02625 1.14622e-06 0.000277023 0.03 1.22355e-06 0.000275993 0.03375 1.30094e-06 0.000274968 0.0375
1.37839e-06 0.000273946 0.04125 1.46859e-06 0.000273457 0.045 1.55836e-06 0.00027297 0.04875 1.6483e-06
0.000272484 0.0525 1.73841e-06 0.000271999 0.05625 1.82869e-06 0.000271514 0.06 1.92967e-06 0.000271316
0.06375 2.03643e-06 0.000271118 0.0675 2.14343e-06 0.00027092 0.07125 2.25069e-06 0.000270722 0.075
2.3582e-06 0.000270524 0.07875 2.48482e-06 0.000270477 0.0825 2.61108e-06 0.00027043 0.08625 2.73767e-06
0.000270383 0.09 2.86457e-06 0.000270336 0.09375 2.9918e-06 0.000270289 0.0975 3.13763e-06 0.000270294
[...]
POINT_DATA 19469
FIELD attributes 3
age 1 19469 float
0 7.3016e-05 0.000146036 0.000219059 0.000292086 0.000365117 0.000553999 0.000742881 0.000931764 0.00112066 0.00130959
0.00149856 0.00168752 0.00187649 0.00206547 0.00225449 0.00244354 0.00263259 0.00282164 0.00301071 0.00319982
0.00338896 0.00357811 0.00376725 0.00395642 0.00414562 0.00433487 0.00452411 0.00471336 0.00490263 0.00509194
0.0051135 0.00513507 0.00515664 0.0051782 0.00519953 0.00536739 0.00553528 0.00570321 0.00587115 0.00603908
0.00622855 0.00641807 0.00660763 0.00679722 0.00698681 0.00717641 0.00736605 0.00755574 0.00774547 0.00793519
0.00812491 0.00831469 0.00850453 0.0086944 0.00888426 0.00907413 0.00926406 0.00945404 0.00964406 0.00983408
0.0100241 0.0102142 0.0104043 0.0105945 0.0107847 0.0109749 0.0111651 0.0113555 0.0115458 0.0117362
0.0119266 0.012117 0.0123075 0.0124981 0.0126886 0.0128792 0.0130698 0.0132605 0.0134513 0.0136421
0.0138328 0.0140237 0.0142146 0.0144056 0.0145966 0.0147876 0.0149787 0.0151699 0.0153611 0.0155524
0.0157436 0.015935 0.0161264 0.0163179 0.0165094 0.0167009 0.0168926 0.0170843 0.0172761 0.0174679
0.0176597 0.0178516 0.0180437 0.0182358 0.0184279 0.01862 0.0188123 0.0190046 0.0191971 0.0193896
0.019582 0.0197747 0.0199674 0.0201603 0.0203531 0.0205459 0.0207388 0.0209317 0.0211246 0.0213177
0.021511 0.0217042 0.0218975 0.0220909 0.0222844 0.0224782 0.0226719 0.0228656 0.0230595 0.0232535
0.0234477 0.023642 0.0238362 0.0240306 0.0242251 0.0244199 0.0246147 0.0248095 0.0250044 0.0251996
0.025395 0.0255904 0.0257858 0.0259814 0.0261772 0.0263733 0.0265693 0.0267654 0.0269617 0.0271582
0.027355 0.0275519 0.0277487 0.0279457 0.028143 0.0283407 0.0285383 0.028736 0.0289339 0.0291321
0.0293306 0.0295292 0.0297278 0.0299266 0.0301258 0.0303253 0.0305249 0.0307245 0.0309243 0.0311246
0.0313253 0.0315259 0.0317266 0.0319276 0.0321291 0.0323309 0.0325328 0.0327347 0.032937 0.0331397
0.0333429 0.0335462 0.0337494 0.033953 0.0341571 0.0343618 0.0345665 0.0347711 0.0349762 0.0351818
0.035388 0.0355942 0.0358004 0.036007 0.0362142 0.036422 0.0366304 0.0368394 0.0370488 0.0372583
0.0374676 0.0376776 0.0378882 0.0380992 0.0383102 0.0385211 0.0387326 0.0389446 0.039157 0.0393693
0.0395815 0.0397942 0.0400074 0.0402208 0.0404341 0.0406473 0.0408607 0.0410745 0.0412884 0.0415021
0.0417156 0.0419292 0.0421427 0.0423561 0.0425693 0.0427822 0.0429947 0.0432068 0.0434185 0.0436298
0.0438408 0.044051 0.0442602 0.0444688 0.0446771 0.0448849 0.0450913 0.0452962 0.0455005 0.0457045
0.0459081 0.0461095 0.0463089 0.0465081 0.0467069 0.0469053 0.047101 0.0472949 0.0474885 0.0476819
0.0478751 0.048065 0.0482535 0.048442 0.0486304 0.0488188 0.0490035 0.0491877 0.0493721 0.0495566
0.0497412 0.0499224 0.0501039 0.0502855 0.0504674 0.0504755 0.0504836 0.0504916 0.0504997 0.0505066
0.0506802 0.0508525 0.0510249 0.0511974 0.0513701 0.0515508 0.0517307 0.0519107 0.0520908 0.052271
0.0524513 0.0526316 0.052812 0.0529925 0.053173 0.0533537 0.0535344 0.0537151 0.0538958 0.0540766
0.0542577 0.0544387 0.0546198 0.0548009 0.054982 0.0551634 0.0553449 0.0555263 0.0557078 0.0558892
0.056071 0.0562527 0.0564345 0.0566162 0.056798 0.05698 0.0571621 0.0573441 0.0575261 0.0577082
0.0578905 0.0580728 0.0582552 0.0584375 0.0586198 0.0588024 0.058985 0.0591677 0.0593503 0.0595329
0.0597158 0.0598987 0.0600816 0.0602645 0.0604474 0.0606306 0.0608139 0.0609971 0.0611803 0.0613635
0.061547 0.0617305 0.061914 0.0620975 0.0622811 0.0624649 0.0626487 0.0628325 0.0630163 0.0632001
0.0633842 0.0635683 0.0637523 0.0639364 0.0641205 0.0643048 0.0644892 0.0646735 0.0648578 0.0650422
0.0652268 0.0654113 0.0655959 0.0657805 0.0659651 0.0661499 0.0663346 0.0665194 0.0667042 0.066889
0.067074 0.0672591 0.0674443 0.0676294 0.0678146 0.0679998 0.0681851 0.0683704 0.0685557 0.068741
0.0689263 0.0691118 0.0692972 0.0694827 0.0696681 0.0698536 0.0700391 0.0702247 0.0704103 0.0705958
0.0707814 0.0709671 0.0711528 0.0713384 0.0715241 0.0717098 0.0718955 0.0720813 0.0722671 0.0724528
0.0726386 0.0728244 0.0730102 0.0731961 0.0733819 0.0735677 0.0737536 0.0739394 0.0741253 0.0743112
0.0744971 0.0746829 0.0748688 0.0750547 0.0752406 0.0754265 0.0756124 0.0757983 0.0759842 0.07617
0.0763559 0.0765418 0.0767277 0.0769135 0.0770994 0.0772853 0.0774711 0.0776569 0.0778427 0.0780286
0.0782144 0.0784002 0.078586 0.0787718 0.0789575 0.0791433 0.0793291 0.0795148 0.0797006 0.0798863
0.0800721 0.0802578 0.0804435 0.0806292 0.0808149 0.0810007 0.0811864 0.0813721 0.0815579 0.0817436
0.0819293 0.0821151 0.0823008 0.0824865 0.0826723 0.082858 0.0830438 0.0832296 0.0834153 0.0836011
0.0837869 0.0839728 0.0841586 0.0843444 0.0845302 0.0847161 0.084902 0.0850879 0.0852738 0.0854597
0.0856457 0.0858316 0.0860176 0.0862036 0.0863895 0.0865756 0.0867616 0.0869476 0.0871336 0.0873197
0.0875058 0.0876919 0.0878779 0.088064 0.0882501 0.0884363 0.0886224 0.0888086 0.0889947 0.0891808
0.089367 0.0895532 0.0897394 0.0899256 0.0901118 0.090298 0.0904842 0.0906705 0.0908567 0.0910429
0.0912292 0.0914154 0.0916017 0.091788 0.0919742 0.0921605 0.0923468 0.0925331 0.0927194 0.0929057
0.0930921 0.0932784 0.0934647 0.0936511 0.0938374 0.0940238 0.0942101 0.0943965 0.0945829 0.0947693
0.0949557 0.0951421 0.0953285 0.0955149 0.0957013 0.0958878 0.0960742 0.0962607 0.0964471 0.0966336
0.0968201 0.0970067 0.0971932 0.0973798 0.0975664 0.0977529 0.0979396 0.0981262 0.0983129 0.0984995
0.0986861 0.0988728 0.0990596 0.0992463 0.099433 0.0996197 0.0998065 0.0999932 0.10018 0.100367
0.100553 0.10074 0.100927 0.101114 0.101301 0.101487 0.101674 0.101861 0.102048 0.102235
0.102422 0.102609 0.102796 0.102983 0.10317 0.103357 0.103544 0.103732 0.103919 0.104106
0.104294 0.104482 0.104669 0.104857 0.105045 0.105232 0.105421 0.105609 0.105797 0.105985
0.106173 0.106362 0.106551 0.10674 0.106928 0.107117 0.107306 0.107496 0.107685 0.107874
0.108063 0.108253 0.108443 0.108633 0.108823 0.109012 0.109202 0.109393 0.109583 0.109773
0.109963 0.110154 0.110344 0.110535 0.110725 0.110916 0.111106 0.111297 0.111488 0.111679
0.111869 0.11206 0.112251 0.112441 0.112632 0.112823 0.113014 0.113204 0.113395 0.113586
0.113777 0.113968 0.114159 0.114349 0.11454 0.114731 0.114922 0.115113 0.115304 0.115494
0.115685 0.115876 0.116067 0.116258 0.116449 0.116639 0.11683 0.117021 0.117212 0.117403
0.117593 0.117784 0.117975 0.118165 0.118356 0.118547 0.118738 0.118928 0.119119 0.11931
0.1195 0.119691 0.119881 0.120072 0.120263 0.120453 0.120644 0.120834 0.121025 0.121216
0.121406 0.121597 0.121787 0.121978 0.122168 0.122359 0.122549 0.12274 0.12293 0.12312
0.123311 0.123501 0.123692 0.123882 0.124072 0.124263 0.124453 0.124643 0.124834 0.125024
0.125214 0.125405 0.125595 0.125785 0.125976 0.126166 0.126356 0.126546 0.126736 0.126927
0.127117 0.127307 0.127497 0.127687 0.127878 0.128068 0.128258 0.128448 0.128638 0.128828
0.129018 0.129208 0.129398 0.129588 0.129778 0.129968 0.130158 0.130348 0.130538 0.130728
0.130918 0.131108 0.131298 0.131488 0.131678 0.131867 0.132057 0.132247 0.132437 0.132627
0.132816 0.133006 0.133196 0.133385 0.133575 0.133765 0.133954 0.134144 0.134334 0.134523
0.134713 0.134902 0.135092 0.135281 0.135471 0.13566 0.13585 0.136039 0.136229 0.136418
0.136607 0.136797 0.136986 0.137176 0.137365 0.137554 0.137744 0.137933 0.138122 0.138311
0.138501 0.13869 0.138879 0.139068 0.139257 0.139446 0.139636 0.139825 0.140014 0.140203
0.140392 0.140581 0.14077 0.140959 0.141148 0.141337 0.141526 0.141715 0.141904 0.142093
0.142282 0.142471 0.142659 0.142848 0.143037 0.143226 0.143415 0.143604 0.143793 0.143981
0.14417 0.144359 0.144548 0.144736 0.144925 0.145114 0.145302 0.145491 0.14568 0.145869
0.146057 0.146246 0.146434 0.146623 0.146812 0.147 0.147189 0.147377 0.147566 0.147755
0.147943 0.148132 0.14832 0.148509 0.148697 0.148886 0.149074 0.149263 0.149451 0.14964
0.149828 0.150017 0.150205 0.150394 0.150582 0.15077 0.150959 0.151147 0.151336 0.151524
0.151901 0.152277 0.152653 0.153029 0.153405 0.154156 0.154907 0.155658 0.156409 0.157159
0.15866 0.160161 0.161661 0.163162 0.164662 0.166162 0.167662 0.169163 0.170663 0.172163
0.175163 0.178163 0.181163 0.184164 0.187164 0.193164 0.199164 0.205164 0.211164 0.217164
0.223164 0.229164 0.235164 0.241164 0.247164 0.253164 0.259165 0.265165 0.271165 0.277165
0.283165 0.289165 0.295165 0.301165 0.307165 0.313165 0.319165 0.325165 0.331165 0.337165
0.343165 0.349165 0.355165 0.361165 0.367165 0.373165 0.379165 0.385165 0.391165 0.397165
0.403165 0.403207 0 7.36902e-05 0.000147384 0.000221082 0.000294784 0.00036849 0.000559121 0.000749786
0.000940485 0.00113122 0.00132198 0.00151279 0.00170362 0.00189449 0.0020854 0.00227634 0.00228837 0.00230041
0.00231244 0.00232447 0.00233646 0.00251543 0.00269443 0.00287346 0.00305252 0.00323162 0.00342279 0.003614
0.00380525 0.00399654 0.00418787 0.00437924 0.00457065 0.00476211 0.00495361 0.00514515 0.00533674 0.00552837
0.00572006 0.00591178 0.00610356 0.00629538 0.00648725 0.00667917 0.00687114 0.00706316 0.00725523 0.00744736
0.00763954 0.00783177 0.00802406 0.0082164 0.0084088 0.00860125 0.00879377 0.00898634 0.00917897 0.00937166
0.00956441 0.00975723 0.00995011 0.0101431 0.0103361 0.0105291 0.0107223 0.0109155 0.0111088 0.0113021
0.0114955 0.011689 0.0118826 0.0120762 0.01227 0.0124638 0.0126576 0.0128516 0.0130456 0.0132397
0.0134339 0.0136282 0.0138226 0.0140171 0.0142116 0.0144063 0.014601 0.0147958 0.0149907 0.0151858
0.0153809 0.0155761 0.0157714 0.0159668 0.0161623 0.016358 0.0165537 0.0167496 0.0169455 0.0171416
0.0173378 0.0175341 0.0177306 0.0179271 0.0181238 0.0183206 0.0185176 0.0187146 0.0189118 0.0191092
0.0193067 0.0195043 0.019702 0.0199 0.020098 0.0202962 0.0204946 0.0206931 0.0208918 0.0210907
0.0212897 0.0214889 0.0216882 0.0218878 0.0220875 0.0222874 0.0224875 0.0226877 0.0228882 0.0230889
0.0232897 0.0234908 0.0236921 0.0238936 0.0240953 0.0242973 0.0244994 0.0247018 0.0249044 0.0251073
0.0253105 0.0255138 0.0257175 0.0259213 0.0261255 0.0263299 0.0265347 0.0267397 0.0269449 0.0271505
0.0273564 0.0275626 0.0277691 0.027976 0.0281831 0.0283906 0.0285985 0.0288067 0.0290153 0.0292242
0.0294335 0.0296432 0.0298533 0.0300638 0.0302747 0.030486 0.0306978 0.03091 0.0311227 0.0313358
0.0315494 0.0317634 0.031978 0.0321931 0.0324087 0.0326248 0.0328415 0.0330588 0.0332765 0.0334949
0.0337139 0.0339335 0.0341538 0.0343746 0.0345961 0.0348184 0.0350413 0.0352649 0.0354892 0.0357143
0.0359401 0.0361667 0.0363941 0.0366223 0.0368514 0.0370814 0.0373122 0.037544 0.0377766 0.0380101
0.0382446 0.0384801 0.0387167 0.0389542 0.0391928 0.0394326 0.0396734 0.0399153 0.0401584 0.0404025
0.0406479 0.0408944 0.0411423 0.0413913 0.0416417 0.0418933 0.0421463 0.0424006 0.0426561 0.0429128
0.0431706 0.0434298 0.0436906 0.0439527 0.0442159 0.0444803 0.0447457 0.0450131 0.0452809 0.0455493
0.0458182 0.0460877 0.0463596 0.0464879 0.0466161 0.0467443 0.0468723 0.0469525 0.0471056 0.0472585
0.0474112 0.0475637 0.0477173 0.0479882 0.0482573 0.0485246 0.0487899 0.0490584 0.049205 0.0493504
0.0494947 0.0496378 0.0497481 0.0498681 0.0499874 0.0501059 0.0502237 0.0503416 0.0505891 0.0508314
0.0510688 0.0513014 0.0515306 0.0515463 0.0515619 0.0515776 0.0515931 0.0516088 0.0518152 0.052017
0.0522145 0.0524078 0.052595 0.0527065 0.0528164 0.0529246 0.0530314 0.0531656 0.0532398 0.0533133
0.0533862 0.0534585 0.0535296 0.053704 0.0538749 0.0540422 0.0542063 0.0543639 0.0545026 0.0546397
0.0547753 0.0549094 0.0551303 0.0551452 0.0551602 0.0551751 0.0551901 0.0552071 0.0553384 0.055469
0.0555992 0.0557287 0.055857 0.056 0.0561431 0.0562864 0.0564298 0.056573 0.0567164 0.0568601
0.0570041 0.0571485 0.0572932 0.0574383 0.0575838 0.0577296 0.0578758 0.0580223 0.0580873 0.0581524
0.0582176 0.0582828 0.0583319 0.0584174 0.0585029 0.0585886 0.0586744 0.0587602 0.0589087 0.0590575
0.0592066 0.059356 0.0595057 0.0596557 0.059806 0.0599566 0.0601075 0.0602587 0.0604102 0.060562
0.0607141 0.0608665 0.0610192 0.0611723 0.0613256 0.0614793 0.0616333 0.0617876 0.0619423 0.0620973
0.0622527 0.0624083 0.0625644 0.0627207 0.0628774 0.0630345 0.0631919 0.0633496 0.0635077 0.0636661
0.0638249 0.0639841 0.0641435 0.0643033 0.0644635 0.064624 0.0647848 0.0649459 0.0651074 0.0652692
0.0654313 0.0655938 0.0657565 0.0659196 0.066083 0.0662466 0.0664106 0.0665748 0.0667394 0.0669042
0.0670694 0.0672347 0.0674004 0.0675663 0.0677325 0.067899 0.0680657 0.0682326 0.0683998 0.0685673
0.0687349 0.0689029 0.069071 0.0692394 0.069408 0.0695767 0.0697457 0.069915 0.0700844 0.070254
0.0704238 0.0705939 0.0707641 0.0709344 0.071105 0.0712757 0.0714466 0.0716177 0.0717889 0.0719603
0.0721319 0.0723036 0.0724754 0.0726474 0.0728195 0.0729918 0.0731641 0.0733366 0.0735093 0.073682
0.0738549 0.0740278 0.0742009 0.074374 0.0745472 0.0747205 0.0748938 0.0750673 0.0752408 0.0754143
0.075588 0.0757616 0.0759353 0.076109 0.0762828 0.0764565 0.0766302 0.076804 0.0769778 0.0771515
0.0773253 0.077499 0.0776727 0.0778464 0.07802 0.0781936 0.0783671 0.0785406 0.0787141 0.0788875
0.0790609 0.0792342 0.0794075 0.0795807 0.0797538 0.0799269 0.0800999 0.0802729 0.0804458 0.0806188
0.0807917 0.0809646 0.0811374 0.0813102 0.0814831 0.0816559 0.0818288 0.0820016 0.0821745 0.0823475
0.0825205 0.0826936 0.0828667 0.0830398 0.0832131 0.0833864 0.0835598 0.0837333 0.0839069 0.0840806
0.0842544 0.0844283 0.0846023 0.0847764 0.0849506 0.0851249 0.0852994 0.0854739 0.0856486 0.0858234
0.0859983 0.0861733 0.0863484 0.0865236 0.086699 0.0868744 0.0870499 0.0872255 0.0874013 0.0875771
0.0877531 0.0879291 0.0881052 0.0882814 0.0884577 0.0886341 0.0888105 0.0889871 0.0891637 0.0893404
0.0895172 0.0896941 0.089871 0.090048 0.0902251 0.0904022 0.0905794 0.0907567 0.090934 0.0911115
0.091289 0.0914666 0.0916442 0.0918219 0.0919997 0.0921775 0.0923554 0.0925333 0.0927114 0.0928895
0.0930677 0.093246 0.0934244 0.0936028 0.0937813 0.0939599 0.0941385 0.0943172 0.0944961 0.094675
0.094854 0.0950331 0.0952123 0.0953916 0.0955709 0.0957504 0.0959299 0.0961096 0.0962893 0.0964692
0.0966492 0.0968293 0.0970096 0.09719 0.0973705 0.0975512 0.097732 0.0979131 0.0980947 0.0982765
0.0984585 0.0986407 0.0988231 0.0990047 0.0991863 0.0993681 0.0995499 0.0997318 0.099914 0.100096
0.100278 0.100461 0.100643 0.100826 0.101008 0.101191 0.101374 0.101557 0.10174 0.101924
0.102108 0.102293 0.102477 0.102662 0.102848 0.103034 0.103221 0.103408 0.103596 0.103785
0.103975 0.104166 0.104357 0.10455 0.104743 0.104937 0.105132 0.105329 0.105527 0.105726
0.105927 0.106129 0.106333 0.106537 0.106743 0.106951 0.10716 0.10737 0.107583 0.107797
0.108013 0.108231 0.108451 0.108672 0.108895 0.109119 0.109345 0.109573 0.109804 0.110036
0.11027 0.110505 0.110743 0.110982 0.111223 0.111465 0.11171 0.111956 0.112204 0.112453
0.112704 0.112957 0.113211 0.113467 0.113724 0.113983 0.114243 0.114504 0.114767 0.11503
0.115295 0.115561 0.115829 0.116097 0.116366 0.116637 0.116908 0.11718 0.117453 0.117727
0.118001 0.118276 0.118552 0.118828 0.119105 0.119382 0.11966 0.119939 0.120218 0.120497
0.120776 0.121055 0.121335 0.121615 0.121896 0.122176 0.122457 0.122738 0.123019 0.1233
0.123581 0.123862 0.124143 0.124325 0.124507 0.124689 0.124871 0.125046 0.125146 0.125247
0.125348 0.125448 0.125549 0.12583 0.12611 0.126391 0.126671 0.126951 0.12723 0.127509
0.127788 0.128067 0.128345 0.128623 0.128901 0.129179 0.129456 0.129733 0.130009 0.130285
0.13056 0.130835 0.13111 0.131384 0.131659 0.131933 0.132207 0.13248 0.132753 0.133025
0.133297 0.133569 0.13384 0.134111 0.134382 0.134653 0.134924 0.135194 0.135463 0.135732
0.136001 0.13627 0.136538 0.136806 0.137074 0.137341 0.137609 0.137876 0.138143 0.138409
0.138675 0.138941 0.139207 0.139472 0.139738 0.140003 0.140267 0.140531 0.140545 0.140559
0.140572 0.140586 0.140599 0.14085 0.141099 0.141349 0.141598 0.141847 0.142109 0.142371
0.142633 0.142894 0.143155 0.143414 0.143675 0.143934 0.144194 0.144453 0.14471 0.144969
0.145226 0.145484 0.145741 0.145996 0.146253 0.146509 0.146765 0.14702 0.147274 0.147529
0.147783 0.148037 0.14829 0.148542 0.148795 0.149048 0.149301 0.149553 0.149804 0.150055
0.150306 0.150557 0.150807 0.151056 0.151306 0.151556 0.151806 0.152056 0.152303 0.152552
0.1528 0.153048 0.153296 0.153543 0.15379 0.154038 0.154285 0.154532 0.154777 0.155023
0.155269 0.155515 0.155761 0.156005 0.15625 0.156496 0.156741 0.156986 0.157228 0.157473
0.157717 0.157961 0.158205 0.158447 0.15869 0.158933 0.159176 0.159419 0.15966 0.159902
0.160144 0.160386 0.160627 0.160867 0.161108 0.161349 0.161589 0.161829 0.162068 0.162308
0.162547 0.162786 0.163025 0.163263 0.163502 0.16374 0.163978 0.164215 0.164452 0.164689
0.164926 0.165163 0.165399 0.165567 0.165735 0.165903 0.166071 0.166196 0.166272 0.166348
0.166424 0.1665 0.166576 0.16704 0.167506 0.167958 0.168397 0.168824 0.169629 0.170434
0.171235 0.172032 0.172824 0.174354 0.175879 0.177405 0.17893 0.180454 0.181963 0.183476
0.184988 0.186499 0.188009 0.191012 0.194017 0.197021 0.200023 0.203058 0.209063 0.215069
0.221074 0.227079 0.233084 0.239085 0.245088 0.251092 0.257095 0.263098 0.269098 0.275101
0.281103 0.287106 0.293108 0.299108 0.305111 0.311113 0.317115 0.323116 0.329117 0.335119
0.34112 0.347122 0.353123 0.359124 0.365125 0.371127 0.377128 0.383129 0.38913 0.395131
0.401132 0.407133 0.413134 0.419135 0.421689 0 7.36661e-05 0.000147337 0.000221012 0.000294692
0.000368377 0.000558953 0.000749563 0.000940205 0.00113088 0.00132159 0.00151233 0.0017031 0.00189391 0.00208476
0.00227564 0.00229165 0.00230765 0.00232366 0.00233967 0.00235561 0.00253054 0.00270551 0.00288051 0.00305553
0.00323059 0.00342169 0.00361283 0.00380401 0.00399523 0.00418648 0.00437778 0.00456912 0.0047605 0.00495193
0.00514339 0.0053349 0.00552646 0.00571805 0.0059097 0.00610139 0.00629313 0.00648491 0.00667674 0.00686863
0.00706056 0.00725254 0.00744457 0.00763665 0.00782879 0.00802098 0.00821322 0.00840551 0.00859787 0.00879028
0.00898274 0.00917527 0.00936785 0.00956049 0.00975319 0.00994596 0.0101388 0.0103317 0.0105246 0.0107176
0.0109107 0.0111039 0.0112971 0.0114904 0.0116838 0.0118772 0.0120707 0.0122643 0.0124579 0.0126517
0.0128455 0.0130393 0.0132333 0.0134274 0.0136215 0.0138157 0.01401 0.0142044 0.0143988 0.0145934
0.0147881 0.0149828 0.0151776 0.0153726 0.0155676 0.0157627 0.015958 0.0161533 0.0163487 0.0165443
0.0167399 0.0169357 0.0171315 0.0173275 0.0175236 0.0177198 0.0179161 0.0181126 0.0183091 0.0185058
0.0187027 0.0188996 0.0190967 0.0192939 0.0194913 0.0196888 0.0198864 0.0200842 0.0202821 0.0204802
0.0206785 0.0208768 0.0210754 0.0212741 0.021473 0.021672 0.0218712 0.0220706 0.0222702 0.0224699
0.0226699 0.02287 0.0230703 0.0232708 0.0234715 0.0236725 0.0238736 0.0240749 0.0242765 0.0244783
0.0246803 0.0248825 0.025085 0.0252877 0.0254907 0.0256939 0.0258974 0.0261011 0.0263051 0.0265094
0.026714 0.0269188 0.027124 0.0273294 0.0275352 0.0277412 0.0279476 0.0281544 0.0283614 0.0285688
0.0287766 0.0289847 0.0291932 0.0294021 0.0296114 0.0298211 0.0298553 0.0298896 0.0299238 0.0299581
0.0299918 0.030168 0.0303446 0.0305215 0.0306986 0.0308761 0.0310884 0.0313012 0.0315145 0.0317283
0.0319426 0.0321574 0.0323728 0.0325888 0.0328054 0.0330225 0.0332403 0.0334587 0.0336777 0.0338975
0.0341179 0.034339 0.0345609 0.0347835 0.035007 0.0352313 0.0354563 0.0356822 0.0359091 0.0361369
0.0363656 0.0365953 0.0368261 0.037058 0.037291 0.0375251 0.0377603 0.0379968 0.0382346 0.0384738
0.0387143 0.0389562 0.0391997 0.0394449 0.0396917 0.0399401 0.0401902 0.0404422 0.0406962 0.0409523
0.0412103 0.0414705 0.0417331 0.0419983 0.0422662 0.0425366 0.0428102 0.0430869 0.0433668 0.04365
0.0439368 0.0442266 0.0445204 0.0448184 0.0451207 0.0454284 0.0457384 0.0460529 0.046372 0.0466957
0.0470297 0.0471895 0.0473506 0.0475129 0.0476762 0.0477537 0.0479575 0.0481627 0.0483691 0.0485767
0.0487925 0.0490948 0.0493992 0.0497053 0.0500104 0.0501006 0.0502188 0.0503367 0.0504542 0.0505714
0.0506931 0.0508911 0.051087 0.0512806 0.051472 0.0515961 0.0517996 0.0519995 0.052196 0.0523889
0.0525933 0.0526205 0.0526476 0.0526747 0.0527017 0.0527277 0.0529283 0.0531233 0.0533132 0.0534982