# vtk DataFile Version 2.0
tracks
ASCII
DATASET POLYDATA
POINTS 19519 float
-1.001 1e-07 0.0011 -0.99955 9.88647e-08 0.00110002 -0.9981 9.77235e-08 0.00110004 -0.99665 9.65766e-08
0.00110007 -0.9952 9.54239e-08 0.0011001 -0.99375 9.42653e-08 0.00110014 -0.99 9.12358e-08 0.00110024
-0.98625 8.82229e-08 0.00110034 -0.9825 8.52091e-08 0.00110044 -0.97875 8.21681e-08 0.00110054 -0.975
7.90743e-08 0.00110068 -0.97125 7.59131e-08 0.00110083 -0.9675 7.27656e-08 0.00110098 -0.96375 6.9617e-08
0.00110113 -0.96 6.64405e-08 0.00110129 -0.95625 6.32105e-08 0.00110145 -0.9525 5.99213e-08 0.00110162
-0.94875 5.66368e-08 0.00110179 -0.945 5.33511e-08 0.00110196 -0.94125 5.00392e-08 0.00110213 -0.9375
4.66776e-08 0.00110231 -0.93375 4.32573e-08 0.00110249 -0.93 3.98448e-08 0.00110266 -0.92625 3.6431e-08
0.00110284 -0.9225 3.29926e-08 0.00110302 -0.91875 2.95073e-08 0.0011032 -0.915 2.59695e-08 0.00110339
-0.91125 2.24362e-08 0.00110357 -0.9075 1.89017e-08 0.00110376 -0.90375 1.53408e-08 0.00110395 -0.9
1.17303e-08 0.00110414 -0.897598 9.38422e-09 0.00110426 -0.895196 7.01946e-09 0.00110439 -0.892794 4.63445e-09
0.00110452 -0.890392 2.22917e-09 0.00110465 -0.888183 1.81393e-17 0.00110477 -0.886796 -1.39964e-09 0.00110484
-0.88541 -2.79949e-09 0.00110492 -0.884023 -4.19954e-09 0.00110499 -0.882637 -5.59979e-09 0.00110507 -0.88125
-7.00025e-09 0.00110514 -0.8775 -1.0787e-08 0.00110535 -0.87375 -1.4619e-08 0.00110556 -0.87 -1.84947e-08
0.00110577 -0.86625 -2.23941e-08 0.00110599 -0.8625 -2.62951e-08 0.00110621 -0.85875 -3.01922e-08 0.00110642
-0.855 -3.41361e-08 0.00110664 -0.85125 -3.81211e-08 0.00110687 -0.8475 -4.21286e-08 0.0011071 -0.84375
-4.61378e-08 0.00110733 -0.84 -5.01454e-08 0.00110756 -0.83625 -5.41991e-08 0.0011078 -0.8325 -5.82953e-08
0.00110804 -0.82875 -6.24147e-08 0.00110829 -0.825 -6.6536e-08 0.00110853 -0.82125 -7.0644e-08 0.00110878
-0.8175 -7.48133e-08 0.00110903 -0.81375 -7.90281e-08 0.00110929 -0.81 -8.3268e-08 0.00110955 -0.80625
-8.751e-08 0.00110981 -0.8025 -9.17331e-08 0.00111007 -0.79875 -9.60257e-08 0.00111034 -0.795 -1.00366e-07
0.00111062 -0.79125 -1.04733e-07 0.0011109 -0.7875 -1.09102e-07 0.00111118 -0.78375 -1.13466e-07 0.00111146
-0.78 -1.17887e-07 0.00111174 -0.77625 -1.22357e-07 0.00111204 -0.7725 -1.26854e-07 0.00111234 -0.76875
-1.31353e-07 0.00111264 -0.765 -1.35847e-07 0.00111294 -0.76125 -1.40404e-07 0.00111325 -0.7575 -1.45014e-07
0.00111356 -0.75375 -1.49654e-07 0.00111388 -0.75 -1.54296e-07 0.00111421 -0.74625 -1.58898e-07 0.00111453
-0.7425 -1.63603e-07 0.00111486 -0.73875 -1.68364e-07 0.0011152 -0.735 -1.73158e-07 0.00111554 -0.73125
-1.77955e-07 0.00111589 -0.7275 -1.82703e-07 0.00111623 -0.72375 -1.87565e-07 0.00111659 -0.72 -1.92486e-07
0.00111695 -0.71625 -1.97441e-07 0.00111732 -0.7125 -2.024e-07 0.00111769 -0.70875 -2.07299e-07 0.00111806
-0.705 -2.12329e-07 0.00111844 -0.70125 -2.17425e-07 0.00111883 -0.6975 -2.22558e-07 0.00111923 -0.69375
-2.27695e-07 0.00111963 -0.69 -2.32825e-07 0.00112003 -0.68625 -2.38041e-07 0.00112043 -0.6825 -2.43329e-07
0.00112086 -0.67875 -2.48659e-07 0.00112128 -0.675 -2.53992e-07 0.00112171 -0.67125 -2.59317e-07 0.00112214
-0.6675 -2.64744e-07 0.00112258 -0.66375 -2.70255e-07 0.00112303 -0.66 -2.75816e-07 0.00112349 -0.65625
-2.8138e-07 0.00112395 -0.6525 -2.86842e-07 0.00112441 -0.64875 -2.92512e-07 0.00112488 -0.645 -2.98275e-07
0.00112537 -0.64125 -3.04093e-07 0.00112587 -0.6375 -3.09916e-07 0.00112636 -0.63375 -3.15732e-07 0.00112685
-0.63 -3.21664e-07 0.00112736 -0.62625 -3.27692e-07 0.00112789 -0.6225 -3.33776e-07 0.00112842 -0.61875
-3.39866e-07 0.00112895 -0.615 -3.4595e-07 0.00112948 -0.61125 -3.52165e-07 0.00113003 -0.6075 -3.58489e-07
0.00113059 -0.60375 -3.64879e-07 0.00113116 -0.6 -3.71274e-07 0.00113174 -0.59625 -3.77665e-07 0.00113231
-0.5925 -3.84088e-07 0.00113288 -0.58875 -3.90518e-07 0.00113345 -0.585 -3.97022e-07 0.00113403 -0.58125
-4.03649e-07 0.00113463 -0.5775 -4.10191e-07 0.00113525 -0.57375 -4.16967e-07 0.00113586 -0.57 -4.2375e-07
0.00113648 -0.56625 -4.30611e-07 0.0011371 -0.5625 -4.37598e-07 0.00113775 -0.55875 -4.44466e-07 0.00113841
-0.555 -4.5161e-07 0.00113907 -0.55125 -4.58763e-07 0.00113973 -0.5475 -4.65995e-07 0.0011404 -0.54375
-4.73353e-07 0.00114109 -0.54 -4.80832e-07 0.0011418 -0.53625 -4.88354e-07 0.00114251 -0.5325 -4.95886e-07
0.00114322 -0.52875 -5.03501e-07 0.00114394 -0.525 -5.1125e-07 0.00114468 -0.52125 -5.18788e-07 0.00114544
-0.5175 -5.26714e-07 0.0011462 -0.51375 -5.34651e-07 0.00114696 -0.51 -5.4268e-07 0.00114773 -0.50625
-5.5085e-07 0.00114852 -0.5025 -5.58755e-07 0.00114933 -0.49875 -5.67121e-07 0.00115014 -0.495 -5.755e-07
0.00115095 -0.49125 -5.83976e-07 0.00115177 -0.4875 -5.926e-07 0.00115261 -0.48375 -6.01379e-07 0.00115347
-0.48 -6.10216e-07 0.00115433 -0.47625 -6.19068e-07 0.0011552 -0.4725 -6.28021e-07 0.00115607 -0.46875
-6.37126e-07 0.00115696 -0.465 -6.46396e-07 0.00115787 -0.46125 -6.55731e-07 0.00115878 -0.4575 -6.65083e-07
0.00115969 -0.45375 -6.74545e-07 0.00116061 -0.45 -6.84167e-07 0.00116155 -0.44625 -6.93972e-07 0.0011625
-0.4425 -7.03851e-07 0.00116346 -0.43875 -7.13749e-07 0.00116441 -0.435 -7.23766e-07 0.00116538 -0.43125
-7.33957e-07 0.00116635 -0.4275 -7.43497e-07 0.00116734 -0.42375 -7.53976e-07 0.00116833 -0.42 -7.64476e-07
0.00116932 -0.41625 -7.75096e-07 0.00117032 -0.4125 -7.85886e-07 0.00117132 -0.40875 -7.95861e-07 0.00117233
-0.405 -8.06959e-07 0.00117334 -0.40125 -8.18082e-07 0.00117435 -0.3975 -8.29319e-07 0.00117536 -0.39375
-8.4071e-07 0.00117637 -0.39 -8.52322e-07 0.00117737 -0.38625 -8.64038e-07 0.00117838 -0.3825 -8.75782e-07
0.00117939 -0.37875 -8.8763e-07 0.00118038 -0.375 -8.99615e-07 0.00118137 -0.37125 -9.11826e-07 0.00118233
-0.3675 -9.24154e-07 0.0011833 -0.36375 -9.36514e-07 0.00118426 -0.36 -9.48978e-07 0.00118521 -0.35625
-9.61579e-07 0.00118611 -0.3525 -9.72598e-07 0.00118698 -0.34875 -9.85578e-07 0.00118785 -0.345 -9.98594e-07
0.00118872 -0.34125 -1.0117e-06 0.00118954 -0.3375 -1.02492e-06 0.0011903 -0.33375 -1.0384e-06 0.00119099
-0.33 -1.05203e-06 0.00119169 -0.32625 -1.0657e-06 0.00119238 -0.3225 -1.07943e-06 0.001193 -0.31875
-1.09321e-06 0.00119352 -0.315 -1.10725e-06 0.00119393 -0.31125 -1.12145e-06 0.00119435 -0.3075 -1.13569e-06
0.00119476 -0.30375 -1.14995e-06 0.00119506 -0.3 -1.16421e-06 0.0011952 -0.29625 -1.17543e-06 0.00119519
-0.2925 -1.19e-06 0.00119494 -0.28875 -1.20449e-06 0.00119445 -0.285 -1.21895e-06 0.0011938 -0.28125
-1.23343e-06 0.00119314 -0.2775 -1.24432e-06 0.00119249 -0.27375 -1.2591e-06 0.0011915 -0.27 -1.27369e-06
0.00119017 -0.26625 -1.28814e-06 0.00118861 -0.2625 -1.30263e-06 0.00118704 -0.25875 -1.31279e-06 0.00118548
-0.255 -1.32747e-06 0.00118344 -0.25125 -1.34177e-06 0.00118091 -0.2475 -1.35582e-06 0.00117805 -0.24375
-1.36989e-06 0.0011752 -0.24 -1.38446e-06 0.00117236 -0.23625 -1.3986e-06 0.00116888 -0.2325 -1.41214e-06
0.00116477 -0.22875 -1.42527e-06 0.00116025 -0.225 -1.43843e-06 0.00115575 -0.22125 -1.44547e-06 0.00115127
-0.2175 -1.45818e-06 0.00114593 -0.21375 -1.46979e-06 0.00113973 -0.21 -1.48073e-06 0.00113302 -0.20625
-1.4917e-06 0.00112636 -0.2025 -1.49562e-06 0.00111974 -0.19875 -1.50609e-06 0.00111192 -0.195 -1.51501e-06
0.00110289 -0.19125 -1.52312e-06 0.00109328 -0.1875 -1.53127e-06 0.00108377 -0.18375 -1.53994e-06 0.00107435
-0.18 -1.5466e-06 0.00106341 -0.17625 -1.55114e-06 0.00105096 -0.1725 -1.55485e-06 0.001038 -0.16875
-1.55864e-06 0.00102521 -0.165 -1.56323e-06 0.00101261 -0.16125 -1.56499e-06 0.000998222 -0.1575 -1.5639e-06
0.000982092 -0.15375 -1.56219e-06 0.000965726 -0.15 -1.56066e-06 0.000949661 -0.14625 -1.56008e-06 0.000933892
-0.1425 -1.5548e-06 0.000916124 -0.13875 -1.54493e-06 0.000896421 -0.135 -1.53503e-06 0.000876982 -0.13125
-1.52551e-06 0.000858001 -0.1275 -1.50648e-06 0.000839464 -0.12375 -1.49308e-06 0.00081886 -0.12 -1.47569e-06
0.0007966 -0.11625 -1.45895e-06 0.000774983 -0.1125 -1.44285e-06 0.000753987 -0.10875 -1.41772e-06 0.000733591
-0.105 -1.39477e-06 0.00071117 -0.10125 -1.36733e-06 0.000687789 -0.0975 -1.34095e-06 0.000665201 -0.0937499
-1.31559e-06 0.000643379 -0.0899999 -1.29162e-06 0.000622291 -0.0862499 -1.26228e-06 0.000599667 -0.0824999 -1.23172e-06
0.000576981 -0.0787499 -1.20244e-06 0.000555157 -0.0749999 -1.17439e-06 0.000534163 -0.0712499 -1.14777e-06 0.000513964
-0.0674999 -1.11915e-06 0.000493678 -0.0637499 -1.09129e-06 0.000474041 -0.0599999 -1.06463e-06 0.000455171 -0.0562499
-1.03912e-06 0.000437041 -0.0524999 -1.00793e-06 0.000419618 -0.0487498 -9.74905e-07 0.000404538 -0.0449998 -9.4305e-07
0.000389982 -0.0412498 -9.12325e-07 0.000375934 -0.0374998 -8.82695e-07 0.000362376 -0.0337498 -8.54145e-07 0.000349292
-0.0299998 -8.15521e-07 0.000340664 -0.0262498 -7.77712e-07 0.000332242 -0.0224998 -7.40699e-07 0.000324019 -0.0187499
-7.04464e-07 0.000315993 -0.0149999 -6.68913e-07 0.000308158 -0.0112499 -6.27372e-07 0.000304734 -0.0074999 -5.86092e-07
0.000301347 -0.00374991 -5.45071e-07 0.000297996 6.11905e-08 -5.04304e-07 0.000294681 0.00375005 -4.61106e-07 0.000291401
0.00750005 -4.20465e-07 0.000288157 0.01125 -3.80098e-07 0.000284948 0.015 -3.40002e-07 0.000281773 0.01875
-3.00172e-07 0.000278632 0.0225 -2.55763e-07 0.000277597 0.02625 -2.12538e-07 0.000276565 0.03 -1.69298e-07
0.000275537 0.03375 -1.26043e-07 0.000274512 0.0375 -8.27725e-08 0.000273491 0.038727 -6.62191e-08 0.000273332
0.039954 -4.97486e-08 0.000273172 0.0411811 -3.32691e-08 0.000273013 0.0424081 -1.67806e-08 0.000272854 0.0436558
-5.22035e-12 0.000272692 0.0461746 3.38802e-08 0.000272365 0.0486935 6.78058e-08 0.000272039 0.0512123 1.01772e-07
0.000271714 0.0537312 1.35778e-07 0.000271388 0.05625 1.69825e-07 0.000271063 0.06 2.29599e-07 0.000270865
0.06375 2.90019e-07 0.000270667 0.0675 3.50578e-07 0.000270469 0.07125 4.11277e-07 0.000270272 0.075
4.72115e-07 0.000270075 0.07875 5.44099e-07 0.000270027 0.0825 6.16109e-07 0.00026998 0.08625 6.88298e-07
0.000269933 0.09 7.60667e-07 0.000269886 0.09375 8.33216e-07 0.000269839 0.0975 9.16571e-07 0.000269845
[...]
POINT_DATA 19519
FIELD attributes 3
age 1 19519 float
0 7.3016e-05 0.000146036 0.000219059 0.000292086 0.000365117 0.000553999 0.000742882 0.000931764 0.00112066 0.00130959
0.00149856 0.00168752 0.00187649 0.00206547 0.00225449 0.00244354 0.00263259 0.00282164 0.00301071 0.00319982
0.00338896 0.00357811 0.00376725 0.00395642 0.00414562 0.00433487 0.00452411 0.00471336 0.00490263 0.00509194
0.00521323 0.00533454 0.00545587 0.00557722 0.00568882 0.00575888 0.00582893 0.00589898 0.00596904 0.00603909
0.00622856 0.00641808 0.00660764 0.00679723 0.00698682 0.00717642 0.00736606 0.00755575 0.00774548 0.0079352
0.00812493 0.00831471 0.00850454 0.00869441 0.00888427 0.00907414 0.00926407 0.00945405 0.00964407 0.00983409
0.0100241 0.0102142 0.0104043 0.0105945 0.0107847 0.0109749 0.0111652 0.0113555 0.0115458 0.0117362
0.0119266 0.012117 0.0123075 0.0124981 0.0126886 0.0128792 0.0130698 0.0132606 0.0134513 0.0136421
0.0138329 0.0140237 0.0142147 0.0144057 0.0145966 0.0147876 0.0149787 0.0151699 0.0153612 0.0155524
0.0157436 0.015935 0.0161264 0.0163179 0.0165094 0.0167009 0.0168926 0.0170843 0.0172761 0.0174679
0.0176597 0.0178516 0.0180437 0.0182358 0.0184279 0.01862 0.0188123 0.0190047 0.0191971 0.0193896
0.0195821 0.0197747 0.0199674 0.0201603 0.0203531 0.020546 0.0207388 0.0209317 0.0211246 0.0213177
0.021511 0.0217043 0.0218975 0.0220909 0.0222845 0.0224782 0.0226719 0.0228657 0.0230595 0.0232535
0.0234478 0.023642 0.0238362 0.0240306 0.0242252 0.02442 0.0246147 0.0248095 0.0250045 0.0251996
0.025395 0.0255904 0.0257858 0.0259814 0.0261772 0.0263733 0.0265694 0.0267654 0.0269617 0.0271582
0.0273551 0.0275519 0.0277487 0.0279457 0.0281431 0.0283407 0.0285384 0.028736 0.0289339 0.0291321
0.0293307 0.0295292 0.0297278 0.0299266 0.0301258 0.0303254 0.0305249 0.0307245 0.0309244 0.0311246
0.0313253 0.031526 0.0317267 0.0319276 0.0321291 0.032331 0.0325329 0.0327348 0.032937 0.0331398
0.033343 0.0335462 0.0337494 0.033953 0.0341572 0.0343618 0.0345665 0.0347711 0.0349762 0.0351819
0.035388 0.0355942 0.0358004 0.0360071 0.0362143 0.036422 0.0366304 0.0368394 0.0370489 0.0372583
0.0374677 0.0376776 0.0378882 0.0380992 0.0383102 0.0385211 0.0387326 0.0389446 0.039157 0.0393693
0.0395815 0.0397942 0.0400074 0.0402208 0.0404341 0.0406472 0.0408607 0.0410745 0.0412884 0.0415021
0.0417156 0.0419291 0.0421427 0.0423561 0.0425692 0.0427821 0.0429947 0.0432067 0.0434184 0.0436297
0.0438407 0.0440509 0.04426 0.0444687 0.0446769 0.0448848 0.0450912 0.045296 0.0455004 0.0457043
0.0459079 0.0461093 0.0463088 0.0465079 0.0467067 0.0469052 0.0471008 0.0472947 0.0474883 0.0476817
0.0478749 0.0480648 0.0482533 0.0484417 0.0486301 0.0488185 0.0490032 0.0491875 0.0493718 0.0495563
0.0497409 0.0499221 0.0501036 0.0502852 0.0504671 0.0506491 0.0508291 0.0510092 0.0511896 0.05137
0.0515507 0.0517306 0.0519107 0.0520908 0.052271 0.0524512 0.0526316 0.052812 0.0529925 0.053173
0.0533537 0.0535344 0.0537151 0.0538959 0.0540766 0.0541359 0.0541951 0.0542544 0.0543136 0.0543739
0.0544955 0.0546172 0.0547388 0.0548605 0.0549821 0.0551636 0.055345 0.0555265 0.0557079 0.0558894
0.0560711 0.0562529 0.0564346 0.0566164 0.0567982 0.0569802 0.0571623 0.0573443 0.0575264 0.0577084
0.0578908 0.0580731 0.0582555 0.0584378 0.0586201 0.0588028 0.0589854 0.059168 0.0593506 0.0595332
0.0597162 0.0598991 0.060082 0.0602649 0.0604479 0.0606311 0.0608143 0.0609975 0.0611808 0.061364
0.0615475 0.061731 0.0619146 0.0620981 0.0622816 0.0624654 0.0626493 0.0628331 0.0630169 0.0632007
0.0633848 0.0635689 0.063753 0.0639371 0.0641212 0.0643055 0.0644899 0.0646742 0.0648586 0.0650429
0.0652275 0.0654121 0.0655967 0.0657813 0.0659658 0.0661506 0.0663354 0.0665202 0.066705 0.0668898
0.0670748 0.06726 0.0674451 0.0676303 0.0678155 0.0680006 0.068186 0.0683713 0.0685566 0.0687419
0.0689272 0.0691127 0.0692982 0.0694836 0.0696691 0.0698545 0.0700401 0.0702257 0.0704113 0.0705969
0.0707824 0.0709681 0.0711538 0.0713395 0.0715252 0.0717109 0.0718966 0.0720824 0.0722682 0.0724539
0.0726397 0.0728255 0.0730114 0.0731972 0.073383 0.0735689 0.0737547 0.0739406 0.0741265 0.0743123
0.0744982 0.0746841 0.07487 0.0750559 0.0752418 0.0754277 0.0756136 0.0757995 0.0759854 0.0761713
0.0763572 0.076543 0.0767289 0.0769148 0.0771007 0.0772865 0.0774724 0.0776582 0.077844 0.0780299
0.0782157 0.0784015 0.0785873 0.0787731 0.0789589 0.0791447 0.0793304 0.0795162 0.0797019 0.0798877
0.0800734 0.0802592 0.0804449 0.0806306 0.0808164 0.0810021 0.0811878 0.0813736 0.0815593 0.0817451
0.0819308 0.0821165 0.0823023 0.082488 0.0826738 0.0828596 0.0830453 0.0832311 0.0834169 0.0836027
0.0837885 0.0839744 0.0841602 0.084346 0.0845319 0.0847178 0.0849037 0.0850896 0.0852755 0.0854614
0.0856474 0.0858333 0.0860193 0.0862053 0.0863913 0.0865773 0.0867633 0.0869494 0.0871354 0.0873215
0.0875076 0.0876937 0.0878798 0.0880659 0.088252 0.0884381 0.0886243 0.0888105 0.0889966 0.0891828
0.089338 0.0894932 0.0896484 0.0898036 0.0899593 0.0899902 0.0900211 0.090052 0.0900829 0.0901138
0.0903001 0.0904863 0.0906726 0.0908588 0.0910451 0.0912314 0.0914176 0.0916039 0.0917902 0.0919765
0.0921628 0.0923492 0.0925355 0.0927218 0.0929081 0.0930945 0.0932808 0.0934672 0.0936536 0.0938399
0.0940263 0.0942127 0.0943991 0.0945855 0.0947719 0.0949583 0.0951447 0.0953312 0.0955176 0.095704
0.0958905 0.096077 0.0962635 0.0964499 0.0966364 0.0968229 0.0970095 0.0971961 0.0973826 0.0975692
0.0977558 0.0979424 0.0981291 0.0983157 0.0985024 0.098689 0.0988757 0.0990625 0.0992492 0.0994359
0.0996226 0.0998094 0.0999961 0.100183 0.10037 0.100556 0.100743 0.10093 0.101117 0.101304
0.10149 0.101677 0.101864 0.102051 0.102238 0.102425 0.102612 0.102799 0.102986 0.103174
0.103361 0.103548 0.103736 0.103923 0.104111 0.104298 0.104486 0.104674 0.104862 0.10505
0.105237 0.105426 0.105614 0.105803 0.105991 0.106179 0.106368 0.106557 0.106746 0.106935
0.107124 0.107313 0.107503 0.107692 0.107882 0.108071 0.108261 0.108451 0.108641 0.108831
0.109021 0.109211 0.109401 0.109592 0.109782 0.109972 0.110163 0.110353 0.110544 0.110734
0.110925 0.111115 0.111306 0.111497 0.111688 0.111878 0.112069 0.112259 0.11245 0.112641
0.112831 0.113022 0.113213 0.113403 0.113594 0.113785 0.113976 0.114166 0.114357 0.114548
0.114738 0.114929 0.11512 0.11531 0.115501 0.115692 0.115883 0.116073 0.116264 0.116454
0.116645 0.116836 0.117026 0.117217 0.117408 0.117598 0.117789 0.117979 0.11817 0.11836
0.118551 0.118741 0.118932 0.119122 0.119313 0.119503 0.119694 0.119884 0.120075 0.120265
0.120456 0.120646 0.120837 0.121027 0.121217 0.121408 0.121598 0.121788 0.121979 0.122169
0.122359 0.12255 0.12274 0.12293 0.123121 0.123311 0.123501 0.123691 0.123882 0.124072
0.124262 0.124452 0.124642 0.124833 0.125023 0.125213 0.125403 0.125593 0.125783 0.125973
0.126163 0.126353 0.126544 0.126734 0.126924 0.127113 0.127304 0.127494 0.127684 0.127873
0.128063 0.128253 0.128443 0.128633 0.128823 0.129013 0.129203 0.129393 0.129582 0.129772
0.129962 0.130152 0.130341 0.130531 0.130721 0.13091 0.1311 0.13129 0.131479 0.131669
0.131858 0.132048 0.132238 0.132427 0.132617 0.132806 0.132996 0.133185 0.133375 0.133564
0.133753 0.133943 0.134132 0.134321 0.134511 0.1347 0.134889 0.135079 0.135268 0.135457
0.135646 0.135836 0.136025 0.136214 0.136403 0.136592 0.136781 0.136971 0.13716 0.137349
0.137538 0.137727 0.137916 0.138105 0.138294 0.138483 0.138672 0.138861 0.13905 0.139239
0.139427 0.139616 0.139805 0.139994 0.140183 0.140372 0.14056 0.140749 0.140938 0.141127
0.141315 0.141504 0.141693 0.141881 0.14207 0.142259 0.142447 0.142636 0.142825 0.143013
0.143202 0.14339 0.143579 0.143767 0.143956 0.144144 0.144333 0.144521 0.14471 0.144898
0.145087 0.145275 0.145464 0.145652 0.14584 0.146029 0.146217 0.146405 0.146594 0.146782
0.14697 0.147159 0.147347 0.147535 0.147723 0.147912 0.1481 0.148288 0.148476 0.148664
0.148853 0.149041 0.149229 0.149417 0.149605 0.149793 0.149981 0.15017 0.150358 0.150546
0.150734 0.150922 0.15111 0.151298 0.151486 0.151862 0.152238 0.152614 0.15299 0.153365
0.154116 0.154867 0.155617 0.156368 0.157118 0.158619 0.160119 0.161619 0.163119 0.164619
0.166119 0.16762 0.16912 0.17062 0.17212 0.17512 0.17812 0.18112 0.18412 0.18712
0.19312 0.199121 0.205121 0.211121 0.217121 0.223121 0.229121 0.235121 0.241121 0.247121
0.253121 0.259121 0.265121 0.271121 0.277121 0.283121 0.289121 0.295121 0.301121 0.307121
0.313121 0.319121 0.325121 0.331121 0.337121 0.343121 0.349121 0.355121 0.361121 0.367121
0.373121 0.379121 0.385121 0.391121 0.397121 0.403121 0.40315 0 7.36902e-05 0.000147384
0.000221082 0.000294784 0.00036849 0.000559122 0.000749787 0.000940486 0.00113122 0.00132199 0.00151279 0.00170362
0.00189449 0.0020854 0.00227634 0.0023378 0.00239926 0.00246073 0.0025222 0.00258218 0.00271204 0.00284192
0.00297181 0.00310172 0.00323166 0.00342282 0.00361403 0.00380528 0.00399657 0.0041879 0.00437927 0.00457068
0.00476214 0.00495364 0.00514519 0.00533677 0.00552841 0.00572009 0.00591182 0.00610359 0.00629541 0.00648729
0.00667921 0.00687118 0.0070632 0.00725527 0.0074474 0.00763958 0.00783181 0.00802409 0.00821644 0.00840883
0.00860129 0.0087938 0.00898638 0.00917901 0.0093717 0.00956445 0.00975727 0.00995015 0.0101431 0.0103361
0.0105292 0.0107223 0.0109155 0.0111088 0.0113022 0.0114956 0.0116891 0.0118826 0.0120763 0.01227
0.0124638 0.0126577 0.0128516 0.0130457 0.0132398 0.013434 0.0136283 0.0138226 0.0140171 0.0142117
0.0144063 0.014601 0.0147959 0.0149908 0.0151858 0.0153809 0.0155761 0.0157714 0.0159669 0.0161624
0.016358 0.0165538 0.0167496 0.0169456 0.0171417 0.0173379 0.0175342 0.0177306 0.0179272 0.0181239
0.0183207 0.0185176 0.0187147 0.0189119 0.0191092 0.0193067 0.0195043 0.0197021 0.0199 0.0200981
0.0202963 0.0204946 0.0206932 0.0208919 0.0210907 0.0212897 0.0214889 0.0216883 0.0218878 0.0220875
0.0222874 0.0224875 0.0226878 0.0228882 0.0230889 0.0232898 0.0234909 0.0236921 0.0238936 0.0240954
0.0242973 0.0244995 0.0247019 0.0249045 0.0251074 0.0253105 0.0255139 0.0257175 0.0259214 0.0261256
0.02633 0.0265347 0.0267397 0.026945 0.0271506 0.0273565 0.0275627 0.0277692 0.027976 0.0281832
0.0283907 0.0285985 0.0288067 0.0290153 0.0292242 0.0294335 0.0296433 0.0298533 0.0300638 0.0302747
0.0304861 0.0306978 0.03091 0.0311227 0.0313358 0.0315494 0.0317635 0.031978 0.0321931 0.0324087
0.0326249 0.0328415 0.0330588 0.0332766 0.0334949 0.0337139 0.0339335 0.0341538 0.0343746 0.0345962
0.0348184 0.0350413 0.0352649 0.0354892 0.0357143 0.0359401 0.0361667 0.0363941 0.0366223 0.0368514
0.0370814 0.0373122 0.0375439 0.0377765 0.0380101 0.0382446 0.0384801 0.0387166 0.0389542 0.0391928
0.0394325 0.0396734 0.0399153 0.0401583 0.0404025 0.0406478 0.0408943 0.0411422 0.0413912 0.0416416
0.0418932 0.0421462 0.0424005 0.042656 0.0429127 0.0431705 0.0434296 0.0436905 0.0439525 0.0442157
0.0444801 0.0447455 0.0450128 0.0452807 0.0455491 0.045818 0.0460874 0.0463593 0.0464872 0.0466152
0.046743 0.0468707 0.0469508 0.0471041 0.0472573 0.0474103 0.0475631 0.0477169 0.0479878 0.0482568
0.0485241 0.0487894 0.0490578 0.0492042 0.0493494 0.0494935 0.0496364 0.0497466 0.0498668 0.0499863
0.0501049 0.0502228 0.0503409 0.0505884 0.0508307 0.051068 0.0513006 0.0515298 0.0515454 0.0515609
0.0515764 0.0515918 0.0516073 0.0518139 0.0520158 0.0522134 0.0524067 0.052594 0.0527055 0.0528152
0.0529233 0.05303 0.053164 0.0532383 0.053312 0.053385 0.0534573 0.0535286 0.053703 0.0538737
0.054041 0.0542051 0.0543628 0.0545012 0.0546382 0.0547737 0.0549077 0.055129 0.0551437 0.0551585
0.0551732 0.055188 0.0552048 0.0553362 0.055467 0.0555974 0.0557271 0.0558556 0.0559986 0.0561416
0.0562849 0.0564282 0.0565715 0.0567148 0.0568585 0.0570024 0.0571468 0.0572915 0.0574366 0.057582
0.0577278 0.057874 0.0580205 0.0581673 0.0583145 0.0584619 0.0586097 0.0587579 0.0589063 0.0590551
0.0592041 0.0593535 0.0595032 0.0596532 0.0598034 0.059954 0.0601049 0.060256 0.0604075 0.0605593
0.0607114 0.0608638 0.0610165 0.0611695 0.0613228 0.0614765 0.0616305 0.0617848 0.0619394 0.0620944
0.0622497 0.0624054 0.0625614 0.0627037 0.0628463 0.0629892 0.0631323 0.0633465 0.0635046 0.063663
0.0638218 0.0639809 0.0641404 0.0643002 0.0644603 0.0646208 0.0647816 0.0649427 0.0651042 0.0652659
0.0654281 0.0655905 0.0657532 0.0659163 0.0660796 0.0662433 0.0664072 0.0665715 0.066736 0.0669009
0.067066 0.0672313 0.067397 0.0675629 0.0677291 0.0678955 0.0680622 0.0682292 0.0683964 0.0685638
0.0687315 0.0688994 0.0690675 0.0692359 0.0694045 0.0695732 0.0697422 0.0699115 0.0700809 0.0702505
0.0704203 0.0705904 0.0707606 0.0708601 0.0709597 0.0710594 0.0711591 0.0712455 0.0713192 0.071393
0.0714668 0.0715406 0.0716144 0.0717856 0.071957 0.0721286 0.0723003 0.0724722 0.0726442 0.0728163
0.0729885 0.0731609 0.0733334 0.073506 0.0736788 0.0738516 0.0740246 0.0741976 0.0743708 0.074544
0.0747173 0.0748906 0.075064 0.0752375 0.0754111 0.0755847 0.0757584 0.0759321 0.0761058 0.0762795
0.0764532 0.076627 0.0768007 0.0769745 0.0771483 0.077322 0.0774957 0.0776694 0.0778431 0.0780167
0.0781902 0.0783638 0.0785373 0.0787107 0.0788841 0.0790575 0.0792308 0.079404 0.0795772 0.0797503
0.0799234 0.0800964 0.0802694 0.0803143 0.0803593 0.0804042 0.0804491 0.0804972 0.0806246 0.0807519
0.0808792 0.0810066 0.0811339 0.0813067 0.0814795 0.0816523 0.0818252 0.081998 0.0821709 0.0823439
0.0825169 0.08269 0.0828631 0.0830363 0.0832095 0.0833828 0.0835562 0.0837297 0.0839033 0.084077
0.0842508 0.0844247 0.0845988 0.0847729 0.0849471 0.0851214 0.0852959 0.0854704 0.0856451 0.0858199
0.0859949 0.0861699 0.086345 0.0865203 0.0866956 0.0868711 0.0870466 0.0872223 0.0873981 0.087574
0.08775 0.0879261 0.0881022 0.0882785 0.0884549 0.0886313 0.0888078 0.0889844 0.0891611 0.0893379
0.0895148 0.0896918 0.0898688 0.090046 0.0902231 0.0904004 0.0905777 0.0907551 0.0909326 0.0911102
0.0912878 0.0914655 0.0916433 0.0918212 0.0919991 0.0921771 0.0923551 0.0925332 0.0927115 0.0928898
0.0930682 0.0932466 0.0934251 0.0936037 0.0937824 0.0939611 0.0941399 0.0943188 0.0944978 0.0946769
0.0948561 0.0950353 0.0952146 0.0953941 0.0955735 0.0957531 0.0959328 0.0961125 0.0962924 0.0964724
0.0966525 0.0968327 0.097013 0.0971934 0.097374 0.0975548 0.0977356 0.0979167 0.0980984 0.0982802
0.0984622 0.0986444 0.0988268 0.0990084 0.09919 0.0993718 0.0995536 0.0997355 0.0999177 0.1001
0.100282 0.100465 0.100647 0.10083 0.101013 0.101196 0.101379 0.101562 0.101746 0.10193
0.102114 0.102299 0.102485 0.10267 0.102857 0.103043 0.103231 0.103419 0.103608 0.103798
0.103989 0.104181 0.104374 0.104568 0.104762 0.104958 0.105154 0.105353 0.105552 0.105753
0.105956 0.10616 0.106365 0.106572 0.10678 0.106989 0.1072 0.107413 0.107627 0.107844
0.108062 0.108282 0.108504 0.108728 0.108953 0.109179 0.109408 0.109638 0.109871 0.110105
0.110341 0.110579 0.110819 0.111061 0.111304 0.111548 0.111795 0.112043 0.112293 0.112545
0.112798 0.113052 0.113309 0.113566 0.113825 0.114086 0.114347 0.11461 0.114874 0.11514
0.115406 0.115674 0.115942 0.116212 0.116483 0.116755 0.117027 0.117301 0.117575 0.11785
0.118125 0.118401 0.118678 0.118955 0.119233 0.119511 0.11979 0.12007 0.12035 0.120629
0.120909 0.12119 0.121468 0.121468 0.121469 0.121469 0.12147 0.12147 0.121751 0.122032
0.122314 0.122595 0.122877 0.12315 0.123422 0.123695 0.123968 0.12422 0.124233 0.124246
0.124259 0.124273 0.124286 0.124568 0.124849 0.125131 0.125412 0.125693 0.125974 0.126255
0.126535 0.126815 0.127095 0.127374 0.127653 0.127932 0.12821 0.128488 0.128766 0.129044
0.129321 0.129598 0.129874 0.13015 0.130425 0.1307 0.130975 0.131249 0.131523 0.131797
0.13207 0.132344 0.132617 0.132889 0.13316 0.133431 0.133702 0.133973 0.134243 0.134513
0.134783 0.135053 0.135322 0.135591 0.135859 0.136127 0.136395 0.136662 0.136929 0.137197
0.137463 0.13773 0.137996 0.138262 0.138528 0.138793 0.139058 0.139323 0.139434 0.139545
0.139655 0.139766 0.139882 0.140034 0.140186 0.140338 0.14049 0.140641 0.140904 0.141166
0.141428 0.14169 0.141951 0.142212 0.142473 0.142733 0.142993 0.143252 0.143511 0.14377
0.144028 0.144287 0.144545 0.144801 0.145059 0.145315 0.145572 0.145828 0.146083 0.146339
0.146594 0.146849 0.147104 0.147358 0.147612 0.147865 0.148119 0.148372 0.148624 0.148877
0.149129 0.149382 0.149634 0.149884 0.150136 0.150387 0.150637 0.150888 0.151137 0.151388
0.151638 0.151888 0.152137 0.152385 0.152634 0.152883 0.153131 0.15338 0.153626 0.153874
0.154122 0.15437 0.154617 0.154863 0.15511 0.155356 0.155603 0.155849 0.156094 0.15634
0.156585 0.156831 0.157076 0.15732 0.157565 0.157809 0.158054 0.158298 0.158541 0.158784
0.159028 0.159272 0.159515 0.159757 0.16 0.160242 0.160485 0.160727 0.160968 0.161209
0.161451 0.161692 0.161933 0.162172 0.162413 0.162653 0.162892 0.163132 0.16337 0.163609
0.163848 0.164086 0.164324 0.164561 0.164798 0.165035 0.165272 0.165509 0.165744 0.16598
0.166215 0.16645 0.166684 0.166691 0.166697 0.166704 0.16671 0.166717 0.167178 0.167635
0.168078 0.168508 0.168926 0.169732 0.170534 0.171333 0.172128 0.172916 0.174443 0.175965
0.177486 0.179006 0.180527 0.182035 0.183547 0.185057 0.186567 0.188075 0.191028 0.193982
0.196935 0.199887 0.203119 0.209123 0.215129 0.221134 0.227138 0.233143 0.239143 0.245146
0.251149 0.257152 0.263154 0.269155 0.275157 0.281159 0.287161 0.293164 0.299164 0.305166
0.311168 0.317169 0.323171 0.329172 0.335173 0.341175 0.347176 0.353177 0.359178 0.365179
0.37118 0.377182 0.383183 0.389183 0.395184 0.401185 0.407186 0.413187 0.419187 0.421513
0 7.36661e-05 0.000147337 0.000221012 0.000294693 0.000368377 0.000558954 0.000749563 0.000940205 0.00113088
0.00132159 0.00151233 0.00170311 0.00189392 0.00208476 0.00227564 0.00233752 0.0023994 0.00246128 0.00252317
0.00258355 0.00271293 0.00284233 0.00297174 0.00310117 0.00323062 0.00342172 0.00361286 0.00380404 0.00399525
0.00418651 0.00437781 0.00456915 0.00476053 0.00495196 0.00514342 0.00533493 0.00552649 0.00571808 0.00590973
0.00610142 0.00629316 0.00648494 0.00667678 0.00686866 0.00706059 0.00725257 0.0074446 0.00763668 0.00782882
0.00802101 0.00821325 0.00840555 0.0085979 0.00879031 0.00898278 0.0091753 0.00936788 0.00956052 0.00975323
0.00994599 0.0101388 0.0103317 0.0105247 0.0107177 0.0109108 0.0111039 0.0112971 0.0114904 0.0116838
0.0118772 0.0120707 0.0122643 0.012458 0.0126517 0.0128455 0.0130394 0.0132333 0.0134274 0.0136215
0.0138157 0.01401 0.0142044 0.0143989 0.0145934 0.0147881 0.0149828 0.0151777 0.0153726 0.0155676
0.0157628 0.015958 0.0161533 0.0163488 0.0165443 0.0167399 0.0169357 0.0171316 0.0173275 0.0175236
0.0177198 0.0179162 0.0181126 0.0183092 0.0185059 0.0187027 0.0188997 0.0190967 0.019294 0.0194913
0.0196888 0.0198865 0.0200842 0.0202822 0.0204803 0.0206785 0.0208769 0.0210754 0.0212741 0.021473
0.0216721 0.0218713 0.0220707 0.0222702 0.02247 0.0226699 0.02287 0.0230703 0.0232709 0.0234716
0.0236725 0.0238736 0.024075 0.0242765 0.0244783 0.0246803 0.0248825 0.025085 0.0252877 0.0254907
0.0256939 0.0258974 0.0261011 0.0263051 0.0265094 0.026714 0.0269188 0.027124 0.0273294 0.0275352
0.0277413 0.0279476 0.0281544 0.0283614 0.0285689 0.0287766 0.0289847 0.0291932 0.0294021 0.0296114
0.0298211 0.0298555 0.0298899 0.0299244 0.0299588 0.0299926 0.0301687 0.0303451 0.0305218 0.0306988
0.0308762 0.0310884 0.0313012 0.0315145 0.0317283 0.0319426 0.0321575 0.0323728 0.0325888 0.0328054
0.0330225 0.0332403 0.0334587 0.0336777 0.0338975 0.0341179 0.034339 0.0345609 0.0347835 0.035007
0.0352312 0.0354563 0.0356822 0.0359091 0.0361369 0.0363656 0.0365953 0.0368261 0.037058 0.037291
0.037525 0.0377603 0.0379968 0.0382346 0.0384737 0.0387142 0.0389561 0.0391997 0.0394448 0.0396917
0.0399401 0.0401902 0.0404422 0.0406961 0.0409522 0.0412102 0.0414704 0.041733 0.0419982 0.042266
0.0425364 0.0428101 0.0430868 0.0433666 0.0436498 0.0439367 0.0442264 0.0445202 0.0448182 0.0451204
0.0454282 0.0457381 0.0460526 0.0463717 0.0466954 0.0470293 0.0471885 0.047349 0.0475106 0.0476732
0.0477507 0.047955 0.0481607 0.0483676 0.0485757 0.048792 0.0490938 0.0493977 0.0497032 0.0500078
0.0500982 0.0502167 0.0503349 0.0504527 0.0505702 0.0506923 0.05089 0.0510855 0.0512788 0.0514698