# vtk DataFile Version 2.0
tracks
ASCII
DATASET POLYDATA
POINTS 20150 float
-1.001 1e-07 0.0011 -0.99955 9.95864e-08 0.00109999 -0.9981 9.88383e-08 0.00109998 -0.99665 9.77555e-08
0.00109998 -0.9952 9.6338e-08 0.00109998 -0.99375 9.45856e-08 0.00109998 -0.99 8.91591e-08 0.00110001
-0.98625 8.37582e-08 0.00110003 -0.9825 7.83557e-08 0.00110006 -0.97875 7.19951e-08 0.00110009 -0.975
6.37559e-08 0.00110015 -0.97125 5.36183e-08 0.00110022 -0.9675 4.34959e-08 0.00110029 -0.96375 3.33698e-08
0.00110036 -0.96 2.23767e-08 0.00110043 -0.95625 9.68795e-09 0.00110049 -0.955745 7.75036e-09 0.00110049
-0.95524 5.81287e-09 0.0011005 -0.954735 3.87529e-09 0.00110051 -0.95423 1.93761e-09 0.00110052 -0.953725
1.68469e-17 0.00110052 -0.95048 -1.2451e-08 0.00110057 -0.947235 -2.49059e-08 0.00110061 -0.94399 -3.73646e-08
0.00110066 -0.940745 -5.23869e-08 0.00110069 -0.9375 -7.02522e-08 0.00110072 -0.93375 -9.41751e-08 0.00110074
-0.93 -1.18117e-07 0.00110076 -0.92625 -1.42067e-07 0.00110078 -0.9225 -1.67219e-07 0.00110079 -0.91875
-1.94714e-07 0.0011008 -0.915 -2.24523e-07 0.00110079 -0.91125 -2.54372e-07 0.00110079 -0.9075 -2.84231e-07
0.00110079 -0.90375 -3.11076e-07 0.00110079 -0.9 -3.3202e-07 0.00110079 -0.89625 -3.4701e-07 0.0011008
-0.8925 -3.50035e-07 0.00110081 -0.88875 -3.41039e-07 0.00110084 -0.885 -3.25885e-07 0.00110087 -0.88125
-3.10726e-07 0.0011009 -0.8775 -2.95457e-07 0.00110093 -0.87375 -2.69525e-07 0.00110098 -0.87 -2.32816e-07
0.00110103 -0.86625 -1.90577e-07 0.0011011 -0.8625 -1.48322e-07 0.00110116 -0.859872 -1.18657e-07 0.0011012
-0.857243 -8.46602e-08 0.00110125 -0.854615 -4.6292e-08 0.0011013 -0.851986 -3.55015e-09 0.00110136 -0.85178
1.70166e-17 0.00110136 -0.850174 2.76857e-08 0.0011014 -0.848568 5.53766e-08 0.00110143 -0.846962 8.30726e-08
0.00110147 -0.845356 1.10774e-07 0.0011015 -0.84375 1.3848e-07 0.00110154 -0.84 2.03134e-07 0.00110162
-0.83625 2.78127e-07 0.00110171 -0.8325 3.63418e-07 0.0011018 -0.82875 4.54024e-07 0.0011019 -0.825
5.44671e-07 0.00110199 -0.82125 6.35291e-07 0.00110208 -0.8175 7.44021e-07 0.00110218 -0.81375 8.70807e-07
0.00110228 -0.81 1.00693e-06 0.00110239 -0.80625 1.14311e-06 0.00110249 -0.8025 1.27922e-06 0.0011026
-0.79875 1.43955e-06 0.00110271 -0.795 1.62397e-06 0.00110284 -0.79125 1.82087e-06 0.00110297 -0.7875
2.01788e-06 0.00110309 -0.78375 2.21419e-06 0.00110322 -0.78 2.43372e-06 0.00110336 -0.77625 2.67566e-06
0.0011035 -0.7725 2.92927e-06 0.00110365 -0.76875 3.18303e-06 0.0011038 -0.765 3.43562e-06 0.00110395
-0.76125 3.7068e-06 0.00110411 -0.7575 3.99526e-06 0.00110426 -0.75375 4.29278e-06 0.00110443 -0.75
4.59047e-06 0.00110459 -0.74625 4.88776e-06 0.00110475 -0.7425 5.19389e-06 0.00110492 -0.73875 5.50828e-06
0.0011051 -0.735 5.82705e-06 0.00110528 -0.73125 6.14602e-06 0.00110546 -0.7275 6.46442e-06 0.00110564
-0.72375 6.78157e-06 0.00110584 -0.72 7.09667e-06 0.00110604 -0.71625 7.41079e-06 0.00110626 -0.7125
7.72511e-06 0.00110647 -0.70875 8.03874e-06 0.00110669 -0.705 8.34203e-06 0.00110692 -0.70125 8.63403e-06
0.00110717 -0.6975 8.92017e-06 0.00110743 -0.69375 9.2065e-06 0.00110768 -0.69 9.48892e-06 0.00110794
-0.68625 9.75431e-06 0.00110821 -0.6825 9.99862e-06 0.0011085 -0.67875 1.02318e-05 0.0011088 -0.675
1.04652e-05 0.0011091 -0.67125 1.06942e-05 0.0011094 -0.6675 1.09044e-05 0.00110971 -0.66375 1.10912e-05
0.00111004 -0.66 1.12657e-05 0.00111037 -0.65625 1.14402e-05 0.0011107 -0.6525 1.16143e-05 0.00111103
-0.64875 1.17729e-05 0.00111137 -0.645 1.19155e-05 0.00111173 -0.64125 1.20494e-05 0.00111209 -0.6375
1.21834e-05 0.00111245 -0.63375 1.23122e-05 0.00111281 -0.63 1.24275e-05 0.00111319 -0.62625 1.25237e-05
0.00111358 -0.6225 1.26097e-05 0.00111398 -0.61875 1.26957e-05 0.00111439 -0.615 1.27759e-05 0.00111479
-0.61125 1.28411e-05 0.00111521 -0.6075 1.28851e-05 0.00111566 -0.60375 1.29176e-05 0.00111612 -0.6
1.29501e-05 0.00111658 -0.59625 1.29764e-05 0.00111703 -0.5925 1.3009e-05 0.00111749 -0.58875 1.30416e-05
0.00111795 -0.585 1.30674e-05 0.00111842 -0.58125 1.30806e-05 0.00111892 -0.5775 1.30813e-05 0.00111944
-0.57375 1.30822e-05 0.00111996 -0.57 1.30832e-05 0.00112047 -0.56625 1.30819e-05 0.00112101 -0.5625
1.30767e-05 0.00112156 -0.55875 1.3068e-05 0.00112214 -0.555 1.30595e-05 0.00112272 -0.55125 1.3051e-05
0.00112329 -0.5475 1.30442e-05 0.00112389 -0.54375 1.30404e-05 0.0011245 -0.54 1.30321e-05 0.00112514
-0.53625 1.30321e-05 0.00112578 -0.5325 1.3032e-05 0.00112642 -0.52875 1.3034e-05 0.00112708 -0.525
1.30396e-05 0.00112776 -0.52125 1.30494e-05 0.00112847 -0.5175 1.30594e-05 0.00112918 -0.51375 1.30694e-05
0.00112989 -0.51 1.30796e-05 0.00113062 -0.50625 1.30902e-05 0.00113137 -0.5025 1.31019e-05 0.00113214
-0.49875 1.31137e-05 0.00113291 -0.495 1.31256e-05 0.00113369 -0.49125 1.31386e-05 0.00113448 -0.4875
1.31537e-05 0.00113529 -0.48375 1.3161e-05 0.00113612 -0.48 1.31794e-05 0.00113695 -0.47625 1.31979e-05
0.00113778 -0.4725 1.32249e-05 0.00113862 -0.46875 1.32662e-05 0.00113949 -0.465 1.33107e-05 0.00114038
-0.46125 1.33681e-05 0.00114126 -0.4575 1.34256e-05 0.00114215 -0.45375 1.34892e-05 0.00114305 -0.45
1.35631e-05 0.00114396 -0.44625 1.36342e-05 0.00114489 -0.4425 1.37198e-05 0.00114582 -0.43875 1.38057e-05
0.00114675 -0.435 1.38891e-05 0.00114769 -0.43125 1.39684e-05 0.00114863 -0.4275 1.4045e-05 0.00114959
-0.42375 1.41222e-05 0.00115055 -0.42 1.41996e-05 0.00115151 -0.41625 1.4277e-05 0.00115247 -0.4125
1.43545e-05 0.00115344 -0.40875 1.44337e-05 0.00115442 -0.405 1.45141e-05 0.0011554 -0.40125 1.45947e-05
0.00115637 -0.3975 1.46809e-05 0.00115736 -0.39375 1.47759e-05 0.00115835 -0.39 1.48591e-05 0.00115935
-0.38625 1.49657e-05 0.00116036 -0.3825 1.50727e-05 0.00116136 -0.37875 1.51836e-05 0.00116237 -0.375
1.53007e-05 0.00116339 -0.37125 1.53995e-05 0.00116441 -0.3675 1.55255e-05 0.00116544 -0.36375 1.56518e-05
0.00116647 -0.36 1.5775e-05 0.00116748 -0.35625 1.58935e-05 0.00116847 -0.3525 1.60096e-05 0.00116943
-0.34875 1.61267e-05 0.0011704 -0.345 1.62442e-05 0.00117137 -0.34125 1.63585e-05 0.00117229 -0.3375
1.64678e-05 0.00117315 -0.33375 1.65397e-05 0.00117394 -0.33 1.66488e-05 0.00117474 -0.32625 1.67581e-05
0.00117553 -0.3225 1.68717e-05 0.00117627 -0.31875 1.69914e-05 0.0011769 -0.315 1.70789e-05 0.00117744
-0.31125 1.72101e-05 0.00117798 -0.3075 1.73417e-05 0.00117852 -0.30375 1.74632e-05 0.00117897 -0.3
1.75698e-05 0.00117928 -0.29625 1.76161e-05 0.00117946 -0.2925 1.76819e-05 0.00117943 -0.28875 1.77165e-05
0.00117919 -0.285 1.77294e-05 0.0011788 -0.28125 1.77423e-05 0.00117842 -0.2775 1.77604e-05 0.00117804
-0.27375 1.77651e-05 0.00117735 -0.27 1.77552e-05 0.00117635 -0.26625 1.7735e-05 0.00117513 -0.2625
1.77149e-05 0.00117392 -0.25875 1.7701e-05 0.00117271 -0.255 1.76868e-05 0.00117106 -0.25125 1.7671e-05
0.00116896 -0.2475 1.76542e-05 0.00116657 -0.24375 1.76374e-05 0.00116418 -0.24 1.75548e-05 0.00116179
-0.23625 1.75927e-05 0.00115881 -0.2325 1.76785e-05 0.00115521 -0.22875 1.7795e-05 0.00115124 -0.225
1.79119e-05 0.00114727 -0.22125 1.80371e-05 0.00114332 -0.2175 1.82175e-05 0.00113857 -0.21375 1.84516e-05
0.001133 -0.21 1.87175e-05 0.00112697 -0.20625 1.89836e-05 0.00112097 -0.2025 1.92581e-05 0.00111501
-0.19875 1.95172e-05 0.0011079 -0.195 1.97579e-05 0.00109965 -0.19125 1.99888e-05 0.00109085 -0.1875
2.02196e-05 0.00108213 -0.18375 2.03425e-05 0.00107348 -0.18 2.05088e-05 0.00106338 -0.17625 2.0599e-05
0.00105184 -0.1725 2.06582e-05 0.00103978 -0.16875 2.07184e-05 0.00102789 -0.165 2.06578e-05 0.00101613
-0.16125 2.06563e-05 0.00100265 -0.1575 2.05833e-05 0.000987462 -0.15375 2.04927e-05 0.000972 -0.15
2.04052e-05 0.000956809 -0.14625 2.0193e-05 0.000941867 -0.1425 2.01028e-05 0.000924899 -0.13875 1.99998e-05
0.000905946 -0.135 1.98995e-05 0.000887174 -0.13125 1.98035e-05 0.00086883 -0.1275 1.97232e-05 0.00085088
-0.12375 1.96672e-05 0.000830907 -0.12 1.96362e-05 0.00080922 -0.11625 1.96094e-05 0.00078814 -0.1125
1.95867e-05 0.000767648 -0.10875 1.95784e-05 0.000747701 -0.105 1.96051e-05 0.000725884 -0.10125 1.96581e-05
0.000703084 -0.0975 1.9714e-05 0.000681032 -0.0937499 1.97729e-05 0.000659701 -0.0899999 1.96961e-05 0.000639033
-0.0862499 1.97892e-05 0.000616793 -0.0824999 1.98954e-05 0.000594352 -0.0787499 2.00034e-05 0.000572742 -0.0749999
2.01133e-05 0.00055193 -0.0712499 2.00833e-05 0.000531844 -0.0674999 2.02063e-05 0.00051148 -0.0637499 2.03329e-05
0.000491679 -0.0599999 2.04609e-05 0.00047264 -0.0562499 2.05903e-05 0.000454333 -0.0524999 2.07236e-05 0.000436692
-0.0487498 2.0856e-05 0.000421304 -0.0449998 2.09895e-05 0.000406446 -0.0412498 2.11241e-05 0.000392099 -0.0374998
2.12599e-05 0.000378248 -0.0337498 2.12567e-05 0.000364853 -0.0299998 2.13854e-05 0.000355581 -0.0262498 2.1515e-05
0.000346537 -0.0224998 2.16457e-05 0.000337715 -0.0187499 2.17775e-05 0.00032911 -0.0149999 2.17732e-05 0.000320723
-0.0112499 2.18864e-05 0.000316462 -0.0074999 2.20005e-05 0.000312255 -0.00374991 2.21156e-05 0.000308101 6.11932e-08
2.22315e-05 0.000304001 0.00375005 2.23431e-05 0.000299974 0.00750005 2.24457e-05 0.000296027 0.01125 2.2549e-05
0.00029213 0.015 2.26531e-05 0.000288283 0.01875 2.27579e-05 0.000284486 0.0225 2.28523e-05 0.000282743
0.02625 2.29394e-05 0.000281018 0.03 2.3027e-05 0.000279304 0.03375 2.31153e-05 0.000277599 0.0375
2.32041e-05 0.000275905 0.04125 2.32908e-05 0.000274724 0.045 2.33689e-05 0.000273552 0.04875 2.34474e-05
0.000272386 0.0525 2.35264e-05 0.000271224 0.05625 2.36057e-05 0.000270068 0.06 2.35903e-05 0.000269145
0.06375 2.36646e-05 0.000268229 0.0675 2.37394e-05 0.000267317 0.07125 2.38144e-05 0.000266408 0.075
2.38898e-05 0.000265501 0.07875 2.39683e-05 0.000264704 0.0825 2.40404e-05 0.000263912 0.08625 2.41127e-05
0.000263124 0.09 2.41853e-05 0.000262337 0.09375 2.42582e-05 0.000261553 0.0975 2.4334e-05 0.000260864
0.10125 2.44053e-05 0.000260182 0.105 2.44769e-05 0.000259502 0.10875 2.45487e-05 0.000258824 0.1125
2.46208e-05 0.000258147 0.11625 2.46146e-05 0.000257592 0.12 2.46855e-05 0.000257044 0.12375 2.47567e-05
[...]
POINT_DATA 20150
FIELD attributes 3
age 1 20150 float
0 7.33356e-05 0.000146676 0.000220022 0.000293373 0.00036673 0.000556458 0.000746186 0.000935914 0.00112566 0.00131546
0.0015053 0.00169514 0.00188498 0.00207484 0.00226474 0.00229033 0.00231591 0.00234149 0.00236707 0.00239265
0.00255701 0.00272138 0.00288574 0.00305013 0.00321455 0.00340459 0.00359464 0.00378468 0.00397475 0.00416485
0.004355 0.00454514 0.00473529 0.00492545 0.00511565 0.00530588 0.00549616 0.00568646 0.00587679 0.00606712
0.00625744 0.00644781 0.00663821 0.00682863 0.00701906 0.00715253 0.00728602 0.00741953 0.00755307 0.00756353
0.00764514 0.00772674 0.00780835 0.00788995 0.00797155 0.00816209 0.00835267 0.00854331 0.00873396 0.00892462
0.00911527 0.00930598 0.00949674 0.00968753 0.00987831 0.0100691 0.0102599 0.0104508 0.0106418 0.0108327
0.0110236 0.0112146 0.0114057 0.0115968 0.0117879 0.011979 0.0121701 0.0123614 0.0125527 0.0127439
0.0129352 0.0131266 0.013318 0.0135095 0.013701 0.0138924 0.014084 0.0142756 0.0144673 0.014659
0.0148507 0.0150425 0.0152343 0.0154263 0.0156182 0.0158101 0.0160022 0.0161943 0.0163865 0.0165787
0.0167709 0.0169632 0.0171556 0.0173481 0.0175406 0.017733 0.0179256 0.0181184 0.0183112 0.0185039
0.0186967 0.0188896 0.0190827 0.0192758 0.0194689 0.019662 0.0198553 0.0200487 0.0202422 0.0204357
0.0206292 0.0208227 0.0210162 0.0212097 0.0214035 0.0215973 0.0217912 0.0219851 0.0221791 0.0223733
0.0225675 0.0227619 0.0229562 0.0231506 0.0233452 0.02354 0.0237348 0.0239295 0.0241245 0.0243196
0.0245148 0.0247102 0.0249055 0.0251009 0.0252966 0.0254924 0.0256883 0.0258842 0.0260803 0.0262765
0.026473 0.0266695 0.0268661 0.0270628 0.0272597 0.0274569 0.0276542 0.0278514 0.0280488 0.0282466
0.0284446 0.0286426 0.0288407 0.0290389 0.0292375 0.0294364 0.0296354 0.0298343 0.0300335 0.030233
0.0304329 0.0306328 0.0308327 0.0310329 0.0312334 0.0314343 0.0316353 0.0318363 0.0320375 0.0322393
0.0324414 0.0326435 0.0328457 0.0330482 0.0332512 0.0334546 0.0336582 0.0338617 0.0340655 0.0342699
0.0344748 0.0346797 0.0348846 0.0350899 0.0352958 0.0355022 0.0357086 0.035915 0.0361219 0.0363294
0.0365373 0.036746 0.0369553 0.037165 0.0373747 0.0375843 0.0377946 0.0380055 0.0382168 0.0384281
0.0386393 0.0388511 0.0390635 0.0392763 0.039489 0.0397015 0.0399147 0.0401283 0.0403422 0.040556
0.0407697 0.0409837 0.0411981 0.0414126 0.041627 0.0418411 0.0420554 0.0422698 0.0424841 0.0426981
0.0429118 0.0431254 0.0433387 0.0435516 0.0437642 0.0439764 0.044188 0.0443987 0.044609 0.0448188
0.0450282 0.0452363 0.045443 0.0456492 0.045855 0.0460603 0.0462636 0.046465 0.046666 0.0468667
0.0470669 0.0472645 0.0474603 0.0476558 0.047851 0.0480459 0.0482377 0.048428 0.0486182 0.0488083
0.0489983 0.0491847 0.0493705 0.0495564 0.0497423 0.0499283 0.0501108 0.0502935 0.0504764 0.0506595
0.0508427 0.0510237 0.0512049 0.0513862 0.0515677 0.0517494 0.0519301 0.052111 0.0522919 0.0524729
0.0526541 0.0528353 0.0530165 0.0531979 0.0533793 0.0535608 0.0537422 0.0539237 0.0541052 0.0542867
0.0544685 0.0546503 0.0548321 0.0550139 0.0551957 0.0553779 0.0555599 0.055742 0.0559241 0.0561062
0.0562886 0.0564709 0.0566533 0.0568357 0.057018 0.0572007 0.0573832 0.0575658 0.0577484 0.057931
0.0581138 0.0582966 0.0584794 0.0586622 0.0588451 0.0590281 0.0592112 0.0593942 0.0595772 0.0597603
0.0599436 0.0601269 0.0603102 0.0604934 0.0606767 0.0608603 0.0610438 0.0612273 0.0614108 0.0615944
0.0617782 0.061962 0.0621457 0.0623295 0.0625133 0.0626974 0.0628814 0.0630654 0.0632494 0.0634334
0.0636177 0.063802 0.0639862 0.0641704 0.0643547 0.0645391 0.0647235 0.064908 0.0650924 0.0652768
0.0654614 0.065646 0.0658306 0.0660152 0.0661998 0.0663846 0.0665693 0.0667541 0.0669388 0.0671236
0.0673085 0.0674936 0.0676786 0.0678637 0.0680487 0.0682338 0.0684189 0.0686041 0.0687893 0.0689745
0.0691597 0.069345 0.0695303 0.0697156 0.0699009 0.0700862 0.0702716 0.070457 0.0706424 0.0708278
0.0710132 0.0711987 0.0713842 0.0715697 0.0717551 0.0719406 0.0721262 0.0723118 0.0724973 0.0726829
0.0728685 0.0730541 0.0732397 0.0734253 0.073611 0.0737966 0.0739823 0.074168 0.0743536 0.0745393
0.074725 0.0749107 0.0750964 0.0752821 0.0754679 0.0756536 0.0758393 0.0760251 0.0762108 0.0763966
0.0765823 0.0767681 0.0769538 0.0771395 0.0773253 0.077511 0.0776967 0.0778825 0.0780682 0.0782539
0.0784396 0.0786253 0.078811 0.0789966 0.0791823 0.079368 0.0795536 0.0797392 0.0799249 0.0801105
0.0802961 0.0804817 0.0806673 0.0808529 0.0810385 0.0812241 0.0814097 0.0815953 0.0817808 0.0819664
0.082152 0.0823376 0.0825231 0.0827087 0.0828943 0.0830799 0.0832654 0.083451 0.0836366 0.0838221
0.0840077 0.0841933 0.0843789 0.0845645 0.08475 0.0849356 0.0851212 0.0853068 0.0854924 0.0856779
0.0858635 0.0860491 0.0862347 0.0864202 0.0866058 0.0867914 0.0869769 0.0871625 0.0873481 0.0875336
0.0877192 0.0879047 0.0880903 0.0882758 0.0884614 0.0886469 0.0888324 0.089018 0.0892035 0.089389
0.0895745 0.08976 0.0899455 0.090131 0.0903165 0.0905019 0.0906873 0.0908728 0.0910582 0.0912437
0.0914291 0.0916145 0.0917998 0.0919852 0.0921706 0.092356 0.0925413 0.0927267 0.092912 0.0930973
0.0932826 0.0934679 0.0936532 0.0938384 0.0940237 0.0942089 0.0943941 0.0945793 0.0947645 0.0949497
0.0951349 0.09532 0.0955051 0.0956903 0.0958754 0.0960605 0.0962456 0.0964307 0.0966158 0.0968009
0.096986 0.097171 0.097356 0.0975411 0.0977261 0.0979111 0.0980961 0.0982812 0.0984662 0.0986512
0.0988362 0.0990212 0.0992061 0.0993911 0.0995761 0.0997611 0.099946 0.100131 0.100316 0.100501
0.100686 0.100871 0.101056 0.101241 0.101426 0.101611 0.101797 0.101982 0.102168 0.102353
0.102539 0.102725 0.102911 0.103097 0.103283 0.103469 0.103657 0.103844 0.104031 0.104218
0.104405 0.104593 0.104781 0.104969 0.105157 0.105345 0.105534 0.105723 0.105912 0.106101
0.10629 0.10648 0.10667 0.10686 0.10705 0.10724 0.10743 0.107621 0.107812 0.108002
0.108193 0.108384 0.108575 0.108766 0.108957 0.109148 0.10934 0.109531 0.109722 0.109914
0.110105 0.110297 0.110488 0.11068 0.110871 0.111063 0.111255 0.111446 0.111638 0.11183
0.112021 0.112213 0.112405 0.112596 0.112788 0.11298 0.113172 0.113363 0.113555 0.113747
0.113939 0.114131 0.114323 0.114515 0.114706 0.114898 0.11509 0.115282 0.115474 0.115666
0.115858 0.11605 0.116242 0.116434 0.116626 0.116818 0.11701 0.117202 0.117394 0.117586
0.117777 0.117969 0.118161 0.118353 0.118545 0.118737 0.118929 0.119121 0.119313 0.119505
0.119697 0.119888 0.12008 0.120272 0.120464 0.120656 0.120847 0.121039 0.121231 0.121423
0.121614 0.121806 0.121998 0.122189 0.122381 0.122573 0.122764 0.122956 0.123147 0.123339
0.12353 0.123721 0.123913 0.124104 0.124295 0.124487 0.124678 0.124869 0.12506 0.125251
0.125442 0.125633 0.125824 0.126016 0.126207 0.126397 0.126588 0.126779 0.12697 0.127161
0.127351 0.127542 0.127732 0.127923 0.128113 0.128304 0.128494 0.128685 0.128875 0.129065
0.129255 0.129446 0.129636 0.129826 0.130016 0.130206 0.130396 0.130586 0.130776 0.130966
0.131156 0.131346 0.131536 0.131726 0.131915 0.132105 0.132295 0.132485 0.132674 0.132864
0.133054 0.133243 0.133433 0.133623 0.133812 0.134002 0.134191 0.134381 0.13457 0.13476
0.134949 0.135139 0.135328 0.135517 0.135707 0.135896 0.136085 0.136275 0.136464 0.136653
0.136842 0.137031 0.137221 0.13741 0.137599 0.137788 0.137977 0.138166 0.138355 0.138544
0.138734 0.138923 0.139112 0.139301 0.13949 0.139679 0.139867 0.140056 0.140245 0.140434
0.140623 0.140812 0.141001 0.14119 0.141379 0.141568 0.141756 0.141945 0.142134 0.142323
0.142512 0.1427 0.142889 0.143078 0.143267 0.143455 0.143644 0.143833 0.144022 0.14421
0.144399 0.144588 0.144777 0.144965 0.145154 0.145343 0.145531 0.14572 0.145908 0.146097
0.146286 0.146474 0.146663 0.146851 0.14704 0.147229 0.147417 0.147606 0.147794 0.147983
0.148171 0.14836 0.148548 0.148737 0.148925 0.149114 0.149302 0.149491 0.149679 0.149868
0.150056 0.150245 0.150433 0.150622 0.15081 0.150998 0.151187 0.151375 0.151564 0.151752
0.152129 0.152506 0.152883 0.153259 0.153636 0.154388 0.15514 0.155892 0.156643 0.157395
0.158897 0.160398 0.161898 0.163399 0.1649 0.166401 0.167902 0.169402 0.170903 0.172404
0.175405 0.178407 0.181408 0.18441 0.187411 0.193412 0.199414 0.205415 0.211416 0.217418
0.223418 0.229419 0.23542 0.24142 0.247421 0.253422 0.259422 0.265423 0.271423 0.277424
0.283425 0.289425 0.295426 0.301426 0.307427 0.313427 0.319428 0.325429 0.331429 0.33743
0.34343 0.349431 0.355432 0.361432 0.367433 0.373433 0.379434 0.385435 0.391435 0.397436
0.403436 0.40945 0.415477 0.421517 0.427571 0 7.44452e-05 0.000148896 0.000223352 0.000297814
0.000372282 0.000479499 0.000586731 0.000693978 0.000801239 0.000867032 0.000960771 0.00105452 0.00114828 0.00124206
0.00133584 0.00152868 0.00172157 0.00191451 0.00210749 0.00230052 0.0024936 0.00268673 0.00287991 0.00307314
0.00326641 0.00345974 0.00365312 0.00384655 0.00404004 0.00423359 0.0044272 0.00462087 0.00481461 0.00500841
0.00520228 0.00539622 0.00559023 0.00578432 0.00597848 0.00617271 0.00636702 0.0065614 0.00675585 0.00695037
0.00714497 0.00733964 0.00753438 0.00772918 0.00792405 0.00811898 0.00831398 0.00850904 0.00870416 0.00889935
0.00909459 0.00928897 0.00948341 0.00967791 0.00987247 0.00995974 0.00998214 0.0100045 0.0100269 0.0100494
0.0100718 0.0102674 0.010463 0.0106588 0.0108546 0.0110504 0.0112463 0.0114423 0.0116384 0.0118345
0.0120307 0.0122269 0.0124233 0.0126197 0.0128161 0.0130127 0.0132093 0.013406 0.0136028 0.0137996
0.0139965 0.0141936 0.0143907 0.0145879 0.0147851 0.0149825 0.01518 0.0153775 0.0155752 0.0157729
0.0159708 0.0161687 0.0163668 0.016565 0.0167632 0.0169616 0.0171601 0.0173587 0.0175575 0.0177563
0.0179553 0.0181544 0.0183536 0.0185529 0.0187524 0.018952 0.0191517 0.0193516 0.0195517 0.0197518
0.0199521 0.0201526 0.0203532 0.020554 0.0207549 0.020956 0.0211573 0.0213587 0.0215603 0.0217621
0.021964 0.0221661 0.0223685 0.022571 0.0227737 0.0229766 0.0231797 0.023383 0.0235865 0.0237902
0.0239941 0.0241983 0.0244027 0.0246073 0.0248122 0.0250173 0.0252226 0.0254282 0.0256341 0.0258402
0.0260466 0.0262532 0.0264602 0.0266674 0.026875 0.0270828 0.0272909 0.0274993 0.0277081 0.0279172
0.0281267 0.0283364 0.0285466 0.0287571 0.028968 0.0291792 0.0293909 0.0296029 0.0298154 0.0300282
0.0302415 0.0304552 0.0306694 0.0308841 0.0310992 0.0313147 0.0315308 0.0317473 0.0319644 0.032182
0.0324002 0.0326188 0.0328381 0.033058 0.0332785 0.0334995 0.0337212 0.0339435 0.0341665 0.0343902
0.0346145 0.0348396 0.0350654 0.0352919 0.0355193 0.0357473 0.0359762 0.0362059 0.0364364 0.0366678
0.0369001 0.0371333 0.0373674 0.0376025 0.0378387 0.0380758 0.0383139 0.038553 0.0387932 0.0390346
0.0392771 0.0395207 0.0397655 0.0400116 0.040259 0.0405075 0.0407573 0.0410084 0.0412609 0.0415147
0.04177 0.0420266 0.0422848 0.0425444 0.0428056 0.0430683 0.0433324 0.0435979 0.0438648 0.0441332
0.0444036 0.0446753 0.0449485 0.045223 0.0454989 0.0457769 0.0460557 0.0463352 0.0466155 0.0468965
0.0471804 0.047367 0.0475536 0.0477401 0.0479264 0.0480184 0.0481349 0.0482514 0.0483678 0.0484841
0.048601 0.0488849 0.049167 0.0494474 0.0497259 0.0500081 0.0501883 0.0503669 0.0505439 0.0507192
0.0508483 0.0509512 0.0510536 0.0511555 0.0512569 0.0513583 0.0516189 0.0518741 0.0521241 0.0523692
0.0526108 0.0526388 0.0526668 0.0526947 0.0527225 0.0527504 0.0529552 0.0531558 0.0533523 0.0535449
0.0537317 0.0538571 0.0539805 0.054102 0.0542219 0.054374 0.0544441 0.0545137 0.0545827 0.0546511
0.0547186 0.0549027 0.0550832 0.05526 0.0554335 0.0556002 0.0557504 0.0558989 0.0560457 0.0561908
0.0564099 0.0564294 0.056449 0.0564685 0.056488 0.0565106 0.0566452 0.0567791 0.0569124 0.0570451
0.0571765 0.0573271 0.0574778 0.0576286 0.0577795 0.0579302 0.0580809 0.0582318 0.058383 0.0585345
0.0586862 0.0588382 0.0589905 0.0591431 0.0592959 0.059449 0.0596024 0.0597559 0.0599096 0.0600635
0.0602176 0.060372 0.0605267 0.0606815 0.0608365 0.0609917 0.0611471 0.0613027 0.0614585 0.0616145
0.0617707 0.0619271 0.0620838 0.0622408 0.0623981 0.0625556 0.0627133 0.0628712 0.0630295 0.063188
0.0633468 0.063506 0.0636655 0.0638254 0.0639856 0.0641461 0.0643069 0.064468 0.0646295 0.0647913
0.0649535 0.065116 0.0652789 0.0654421 0.0656056 0.0657695 0.0659337 0.0660982 0.0662629 0.066428
0.0665934 0.0667591 0.066925 0.0670911 0.0672575 0.0674241 0.067591 0.0677582 0.0679255 0.0680931
0.0682609 0.0684289 0.0685971 0.0687655 0.068934 0.0691027 0.0692717 0.0694409 0.0696102 0.0697797
0.0699494 0.0701193 0.0702893 0.0704594 0.0706297 0.0708002 0.0708259 0.0708515 0.0708771 0.0709027
0.070928 0.0710732 0.0712187 0.0713642 0.0715099 0.0716556 0.0718272 0.0719989 0.0721707 0.0723428
0.0725149 0.0726873 0.0728598 0.0730325 0.0732053 0.0733782 0.0735513 0.0737245 0.0738979 0.0740714
0.0742451 0.0744189 0.0745928 0.0747669 0.0749412 0.0751155 0.07529 0.0754646 0.0756393 0.0758141
0.075989 0.0761641 0.0763392 0.0765145 0.0766899 0.0768653 0.0770409 0.0772165 0.0773921 0.0775678
0.0777436 0.0779195 0.0780954 0.0782713 0.0784473 0.0786233 0.0787992 0.0789752 0.0791511 0.079327
0.0795028 0.0796787 0.0798545 0.0800302 0.0802059 0.0803815 0.080557 0.0807324 0.0809077 0.0810828
0.0812579 0.0814329 0.0816077 0.0817825 0.0819571 0.0821316 0.082306 0.0824802 0.0826543 0.0828283
0.0830021 0.0831759 0.0833496 0.0835232 0.0836966 0.08387 0.0840432 0.0842164 0.0843895 0.0845625
0.0847354 0.0849082 0.085081 0.0852538 0.0854265 0.0855991 0.0857716 0.085944 0.0861164 0.0862887
0.0864609 0.0866331 0.0868052 0.0869773 0.0871493 0.0873212 0.087493 0.0876647 0.0878364 0.088008
0.0881796 0.088351 0.0885224 0.0886938 0.0888651 0.0890363 0.0892074 0.0893785 0.0895495 0.0897204
0.0898912 0.090062 0.0902327 0.0904033 0.0905738 0.0907442 0.0909145 0.0910848 0.091255 0.0914251
0.0915952 0.0917651 0.0919349 0.0921047 0.0922744 0.0924441 0.0926137 0.0927832 0.0929527 0.0931221
0.0932915 0.0934608 0.0936299 0.0937991 0.0939681 0.0941371 0.094306 0.0944748 0.0946436 0.0948123
0.0949809 0.0951495 0.0953179 0.0954863 0.0956547 0.095823 0.0959912 0.0961593 0.0963275 0.0964955
0.0966636 0.0968316 0.0969995 0.0971674 0.0973352 0.097503 0.0976707 0.0978384 0.098006 0.0981737
0.0983413 0.098509 0.0986767 0.0988443 0.0990119 0.0991795 0.0993476 0.0995154 0.0996829 0.0998502
0.100017 0.100183 0.100349 0.100515 0.10068 0.100845 0.10101 0.101175 0.10134 0.101505
0.10167 0.101835 0.102001 0.102168 0.102335 0.102503 0.102672 0.102843 0.103014 0.103187
0.103361 0.103537 0.103714 0.103893 0.104073 0.104256 0.10444 0.104626 0.104815 0.105005
0.105198 0.105393 0.105589 0.105788 0.105989 0.106192 0.10629 0.106388 0.106487 0.106586
0.106686 0.106797 0.106908 0.107019 0.107132 0.107245 0.107462 0.107681 0.107902 0.108125
0.10835 0.108578 0.108807 0.109037 0.10927 0.109504 0.109739 0.109975 0.110212 0.110451
0.11069 0.11093 0.111172 0.111414 0.111656 0.111899 0.112142 0.112385 0.112629 0.112872
0.113115 0.113359 0.113603 0.113846 0.114089 0.114331 0.114574 0.114815 0.115056 0.115297
0.115536 0.115775 0.116014 0.116252 0.116489 0.116725 0.116961 0.117196 0.11743 0.117663
0.117896 0.118004 0.118111 0.118219 0.118327 0.118476 0.11859 0.118704 0.118818 0.118932
0.119046 0.119274 0.119501 0.119728 0.119953 0.120179 0.120403 0.120627 0.12085 0.121072
0.121294 0.121515 0.121736 0.121955 0.122175 0.122393 0.122612 0.122829 0.123046 0.123263
0.123479 0.123694 0.123909 0.124124 0.124338 0.124551 0.124764 0.124977 0.125189 0.125401
0.125612 0.125823 0.126034 0.126244 0.126454 0.126663 0.126872 0.127081 0.12729 0.127498
0.127705 0.127913 0.12812 0.128327 0.128533 0.128739 0.128945 0.129151 0.129356 0.129561
0.129766 0.129837 0.129909 0.12998 0.130051 0.130123 0.130256 0.130389 0.130521 0.130654
0.130787 0.13099 0.131193 0.131396 0.131599 0.131802 0.132004 0.132206 0.132408 0.13261
0.132811 0.133013 0.133214 0.133415 0.133616 0.133816 0.134017 0.134217 0.134417 0.134617
0.134817 0.135017 0.135216 0.135416 0.135615 0.135814 0.136013 0.136212 0.136411 0.136609
0.136808 0.137006 0.137204 0.137402 0.1376 0.137798 0.137996 0.138193 0.138391 0.138588
0.138785 0.138983 0.13918 0.139377 0.139574 0.13977 0.139967 0.140164 0.14036 0.140556
0.140753 0.140949 0.141145 0.141341 0.141537 0.141733 0.141929 0.142125 0.14232 0.142516
0.142712 0.142907 0.143102 0.143298 0.143493 0.143688 0.143883 0.144078 0.144273 0.144468
0.144663 0.144858 0.145052 0.145247 0.145442 0.145636 0.145831 0.146025 0.146219 0.146414
0.146608 0.146802 0.146996 0.14719 0.147384 0.147578 0.147772 0.147966 0.14816 0.148354
0.148548 0.148741 0.148935 0.149129 0.149322 0.149516 0.149709 0.149903 0.150096 0.15029
0.150483 0.150676 0.150869 0.151063 0.151256 0.151449 0.151642 0.151835 0.152028 0.152221
0.152414 0.152607 0.1528 0.152993 0.153186 0.153379 0.153571 0.153764 0.153957 0.15415
0.154342 0.154535 0.154728 0.15492 0.155113 0.155306 0.155498 0.155691 0.155883 0.156076
0.156268 0.156653 0.157038 0.157423 0.157807 0.158192 0.158961 0.15973 0.160499 0.161267
0.162035 0.163571 0.165106 0.16664 0.168174 0.169706 0.171238 0.172769 0.1743 0.17583
0.177361 0.179728 0.182095 0.184461 0.186827 0.189194 0.189885 0.190575 0.191265 0.191955
0.192644 0.198741 0.204832 0.210912 0.216981 0.223038 0.229084 0.235131 0.241177 0.247222
0.253266 0.259308 0.26535 0.271392 0.277434 0.283476 0.289517 0.295559 0.301601 0.307642
0.313684 0.319726 0.325768 0.331809 0.337851 0.343893 0.349935 0.355977 0.362019 0.368061
0.374104 0.380146 0.386189 0.392231 0.398274 0.404317 0.41036 0.416416 0.422486 0.428567
0.434648 0 7.44383e-05 0.000148884 0.000223337 0.000297797 0.000372264 0.000436774 0.00050129 0.000565812
0.000630339 0.000674349 0.000806603 0.000938881 0.00107118 0.00120351 0.00133586 0.00152872 0.00172164 0.00191462
0.00210765 0.00230074 0.00249389 0.0026871 0.00288038 0.00307373 0.00326715 0.00346063 0.00365419 0.00384783
0.00404154 0.00423532 0.00442918 0.00462311 0.00481712 0.00501119 0.00520534 0.00539956 0.00559384 0.00578818
0.00598259 0.00617706 0.00637159 0.00656618 0.00676083 0.00695553 0.00715028 0.00734509 0.00753995 0.00773486
0.00792982 0.00812483 0.00831989 0.00851499 0.00871015 0.00890536 0.00910062 0.00929592 0.00949127 0.00968668
0.00988214 0.0100777 0.0102732 0.0104688 0.0106645 0.0108602 0.011056 0.0111556 0.0112551 0.0113547
0.0114543 0.0115378 0.0116374 0.011737 0.0118367 0.0119363 0.012036 0.0122321 0.0124283 0.0126246
0.012821 0.0130175 0.013214 0.0134105 0.0136072 0.013804 0.0140008 0.0141977 0.0143946 0.0145917
0.0147889 0.0149861 0.0151834 0.0153809 0.0155784 0.015776 0.0159737 0.0161715 0.0163694 0.0165674
0.0167656 0.0169638 0.0171621 0.0173606 0.0175591 0.0177578 0.0179566 0.0181555 0.0183545 0.0185537
0.018753 0.0189524 0.019152 0.0193516 0.0195515 0.0197514 0.0199515 0.0201518 0.0203522 0.0205528
0.0207535 0.0209543 0.0211554 0.0213566 0.0215579 0.0217595 0.0219612 0.0221631 0.0223651 0.0225674
0.0227698 0.0229725 0.0231753 0.0233783 0.0235816 0.023785 0.0239887 0.0241926 0.0243967 0.0246011
0.0248057 0.0250105 0.0252155 0.0254209 0.0256264 0.0258323 0.0260384 0.0262447 0.0264514 0.0266583
0.0268656 0.0270731 0.0272809 0.0274891 0.0276975 0.0279063 0.0281155 0.028325 0.0285348 0.028745
0.0289556 0.0291666 0.029378 0.0295897 0.0298019 0.0300145 0.0302276 0.0302659 0.0303043 0.0303427
0.0303811 0.0304185 0.0305942 0.0307702 0.0309465 0.0311231 0.0313001 0.0315159 0.0317324 0.0319493
0.0321669 0.032385 0.0326036 0.0328229 0.0330428 0.0332633 0.0334845 0.0337064 0.0339289 0.0341522
0.0343762 0.034601 0.0348265 0.0350529 0.0352801 0.0355082 0.0357372 0.035967 0.0361978 0.0364296
0.0366625 0.0368963 0.0371313 0.0373674 0.0376048 0.0378433 0.0380831 0.0383242 0.0385666 0.0388105
0.0390559 0.0393027 0.0395511 0.0398013 0.0400533 0.040307 0.0405626 0.0408199 0.0410794 0.041341
0.041605 0.0418711 0.0421395 0.0424107 0.0426848 0.0429618 0.0432417 0.0435253 0.0438122 0.0441029
0.0443972 0.0446957 0.0449973 0.0453034 0.0456142 0.0459296 0.0462511 0.0465754 0.0469047 0.0472388
0.047578 0.0479282 0.0481909 0.0484573 0.0487266 0.0489985 0.0490717 0.0492119 0.0493525 0.0494938
0.0496355 0.049781 0.0501656 0.0505543 0.0509463 0.0513371 0.0514153 0.051491 0.0515665 0.051642