# vtk DataFile Version 2.0
tracks
ASCII
DATASET POLYDATA
POINTS 20410 float
-1.001 1e-07 0.0011 -0.99955 9.94955e-08 0.00110002 -0.9981 9.89402e-08 0.00110004 -0.99665 9.83339e-08
0.00110007 -0.9952 9.76767e-08 0.0011001 -0.99375 9.69685e-08 0.00110013 -0.99 9.49824e-08 0.00110023
-0.98625 9.30174e-08 0.00110033 -0.9825 9.10518e-08 0.00110042 -0.97875 8.88157e-08 0.00110053 -0.975
8.60499e-08 0.00110066 -0.97125 8.27351e-08 0.00110081 -0.9675 7.94385e-08 0.00110096 -0.96375 7.61408e-08
0.00110111 -0.96 7.28441e-08 0.00110126 -0.95625 6.95507e-08 0.00110142 -0.9525 6.6253e-08 0.00110159
-0.94875 6.29618e-08 0.00110176 -0.945 5.96694e-08 0.00110193 -0.94125 5.61486e-08 0.0011021 -0.9375
5.21846e-08 0.00110227 -0.93375 4.7765e-08 0.00110245 -0.93 4.33559e-08 0.00110262 -0.92625 3.89451e-08
0.0011028 -0.9225 3.42036e-08 0.00110297 -0.91875 2.88225e-08 0.00110315 -0.915164 2.3058e-08 0.00110332
-0.911578 1.72979e-08 0.00110349 -0.907992 1.15356e-08 0.00110366 -0.904405 5.98783e-09 0.00110383 -0.900123
1.84999e-17 0.00110404 -0.900098 -2.99966e-11 0.00110404 -0.900074 -5.99682e-11 0.00110404 -0.900049 -8.99147e-11
0.00110404 -0.900025 -1.19836e-10 0.00110404 -0.9 -1.49732e-10 0.00110404 -0.89625 -4.70684e-09 0.00110423
-0.8925 -7.60521e-09 0.00110441 -0.88875 -8.84356e-09 0.0011046 -0.885 -9.21819e-09 0.00110478 -0.88125
-9.59298e-09 0.00110497 -0.8775 -9.96551e-09 0.00110516 -0.87375 -9.17953e-09 0.00110535 -0.87 -7.23164e-09
0.00110554 -0.86625 -4.67611e-09 0.00110573 -0.8625 -2.11946e-09 0.00110592 -0.861879 -1.69557e-09 0.00110595
-0.861257 -1.26116e-09 0.00110598 -0.860636 -8.1614e-10 0.00110602 -0.860015 -3.60506e-10 0.00110605 -0.859534
1.72558e-17 0.00110607 -0.856377 2.41053e-09 0.00110624 -0.853221 5.09518e-09 0.0011064 -0.850064 8.05415e-09
0.00110656 -0.846907 1.10304e-08 0.00110673 -0.84375 1.40078e-08 0.0011069 -0.84 1.75423e-08 0.00110709
-0.83625 2.10461e-08 0.00110729 -0.8325 2.45155e-08 0.00110749 -0.82875 2.79674e-08 0.00110769 -0.825
3.1421e-08 0.0011079 -0.82125 3.48733e-08 0.0011081 -0.8175 3.81632e-08 0.0011083 -0.81375 4.12872e-08
0.00110851 -0.81 4.43242e-08 0.00110871 -0.80625 4.73626e-08 0.00110892 -0.8025 5.03984e-08 0.00110912
-0.79875 5.34078e-08 0.00110933 -0.795 5.63861e-08 0.00110954 -0.79125 5.93486e-08 0.00110975 -0.7875
6.23126e-08 0.00110996 -0.78375 6.52591e-08 0.00111017 -0.78 6.80551e-08 0.00111038 -0.77625 7.06806e-08
0.00111059 -0.7725 7.32156e-08 0.00111081 -0.76875 7.5752e-08 0.00111102 -0.765 7.82656e-08 0.00111124
-0.76125 8.02775e-08 0.00111146 -0.7575 8.1762e-08 0.00111168 -0.75375 8.29637e-08 0.0011119 -0.75
8.41661e-08 0.00111212 -0.74625 8.53625e-08 0.00111234 -0.7425 8.5803e-08 0.00111257 -0.73875 8.54787e-08
0.0011128 -0.735 8.47418e-08 0.00111303 -0.73125 8.40045e-08 0.00111326 -0.7275 8.32604e-08 0.00111349
-0.72375 8.17016e-08 0.00111373 -0.72 7.93191e-08 0.00111397 -0.71625 7.64896e-08 0.00111421 -0.7125
7.36584e-08 0.00111446 -0.70875 7.08202e-08 0.0011147 -0.705 6.72816e-08 0.00111496 -0.70125 6.30348e-08
0.00111521 -0.6975 5.84008e-08 0.00111547 -0.69375 5.3764e-08 0.00111574 -0.69 4.91032e-08 0.001116
-0.68625 4.39351e-08 0.00111627 -0.6825 3.82367e-08 0.00111655 -0.67875 3.2246e-08 0.00111683 -0.675
2.62512e-08 0.00111712 -0.671724 2.10009e-08 0.00111736 -0.668448 1.56498e-08 0.00111762 -0.665172 1.01874e-08
0.00111789 -0.661896 4.62241e-09 0.00111816 -0.659176 1.10768e-17 0.00111838 -0.658591 -9.95288e-10 0.00111843
-0.658006 -1.99069e-09 0.00111848 -0.65742 -2.9862e-09 0.00111853 -0.656835 -3.98183e-09 0.00111858 -0.65625
-4.97757e-09 0.00111863 -0.6525 -1.13565e-08 0.00111894 -0.64875 -1.71394e-08 0.00111926 -0.645 -2.23231e-08
0.0011196 -0.64125 -2.71761e-08 0.00111995 -0.6375 -3.20329e-08 0.00112029 -0.63375 -3.68916e-08 0.00112064
-0.63 -4.06134e-08 0.001121 -0.62625 -4.31934e-08 0.00112137 -0.6225 -4.51359e-08 0.00112176 -0.61875
-4.70801e-08 0.00112214 -0.615 -4.90234e-08 0.00112252 -0.61125 -4.97266e-08 0.00112292 -0.6075 -4.91829e-08
0.00112334 -0.60375 -4.79363e-08 0.00112376 -0.6 -4.66885e-08 0.00112419 -0.59625 -4.54373e-08 0.00112461
-0.5925 -4.41889e-08 0.00112504 -0.58875 -4.29393e-08 0.00112546 -0.585 -4.09638e-08 0.0011259 -0.58125
-3.77075e-08 0.00112635 -0.5775 -3.31458e-08 0.00112682 -0.57375 -2.86028e-08 0.00112729 -0.57 -2.40551e-08
0.00112776 -0.56625 -1.88784e-08 0.00112825 -0.5625 -1.26048e-08 0.00112875 -0.561219 -1.00838e-08 0.00112892
-0.559938 -7.56478e-09 0.0011291 -0.558658 -5.04475e-09 0.00112928 -0.557377 -2.52373e-09 0.00112946 -0.556095
7.89786e-18 0.00112964 -0.553626 4.86377e-09 0.00112998 -0.551157 9.73124e-09 0.00113032 -0.548688 1.49356e-08
0.00113067 -0.546219 2.0508e-08 0.00113103 -0.54375 2.64492e-08 0.0011314 -0.54 3.60159e-08 0.00113197
-0.53625 4.56142e-08 0.00113254 -0.5325 5.52246e-08 0.00113312 -0.52875 6.52755e-08 0.0011337 -0.525
7.60731e-08 0.0011343 -0.52125 8.7618e-08 0.00113493 -0.5175 9.91853e-08 0.00113555 -0.51375 1.10769e-07
0.00113618 -0.51 1.22717e-07 0.00113681 -0.50625 1.35272e-07 0.00113747 -0.5025 1.48435e-07 0.00113815
-0.49875 1.6163e-07 0.00113883 -0.495 1.74844e-07 0.00113951 -0.49125 1.88148e-07 0.0011402 -0.4875
2.01589e-07 0.00114091 -0.48375 2.14988e-07 0.00114164 -0.48 2.28604e-07 0.00114238 -0.47625 2.42242e-07
0.00114311 -0.4725 2.5552e-07 0.00114386 -0.46875 2.68188e-07 0.00114462 -0.465 2.79984e-07 0.00114541
-0.46125 2.92087e-07 0.0011462 -0.4575 3.04212e-07 0.00114698 -0.45375 3.16024e-07 0.00114778 -0.45
3.27315e-07 0.0011486 -0.44625 3.37732e-07 0.00114943 -0.4425 3.48556e-07 0.00115027 -0.43875 3.594e-07
0.00115111 -0.435 3.7011e-07 0.00115195 -0.43125 3.80591e-07 0.00115282 -0.4275 3.90857e-07 0.00115369
-0.42375 4.01178e-07 0.00115457 -0.42 4.1152e-07 0.00115545 -0.41625 4.2155e-07 0.00115634 -0.4125
4.31073e-07 0.00115724 -0.40875 4.4011e-07 0.00115815 -0.405 4.49205e-07 0.00115905 -0.40125 4.58321e-07
0.00115996 -0.3975 4.66926e-07 0.00116087 -0.39375 4.74726e-07 0.00116179 -0.39 4.81022e-07 0.0011627
-0.38625 4.88105e-07 0.00116362 -0.3825 4.95205e-07 0.00116454 -0.37875 5.01722e-07 0.00116545 -0.375
5.07337e-07 0.00116635 -0.37125 5.11215e-07 0.00116724 -0.3675 5.16029e-07 0.00116813 -0.36375 5.20854e-07
0.00116902 -0.36 5.25221e-07 0.00116989 -0.35625 5.28889e-07 0.00117074 -0.3525 5.31916e-07 0.00117155
-0.34875 5.35003e-07 0.00117237 -0.345 5.38098e-07 0.00117318 -0.34125 5.4067e-07 0.00117396 -0.3375
5.42459e-07 0.00117468 -0.33375 5.42339e-07 0.00117534 -0.33 5.43473e-07 0.00117601 -0.32625 5.4461e-07
0.00117668 -0.3225 5.44895e-07 0.00117728 -0.31875 5.43927e-07 0.00117779 -0.315 5.40428e-07 0.00117821
-0.31125 5.38339e-07 0.00117863 -0.3075 5.36244e-07 0.00117905 -0.30375 5.34086e-07 0.00117937 -0.3
5.31841e-07 0.00117954 -0.29625 5.28108e-07 0.00117957 -0.2925 5.2659e-07 0.00117939 -0.28875 5.25726e-07
0.00117898 -0.285 5.25317e-07 0.00117843 -0.28125 5.24908e-07 0.00117787 -0.2775 5.2463e-07 0.00117731
-0.27375 5.23931e-07 0.00117644 -0.27 5.22745e-07 0.00117525 -0.26625 5.21226e-07 0.00117384 -0.2625
5.19705e-07 0.00117244 -0.25875 5.18337e-07 0.00117103 -0.255 5.15731e-07 0.00116917 -0.25125 5.11817e-07
0.00116684 -0.2475 5.07029e-07 0.00116421 -0.24375 5.02238e-07 0.00116158 -0.24 4.95536e-07 0.00115896
-0.23625 4.87913e-07 0.00115572 -0.2325 4.7722e-07 0.00115187 -0.22875 4.64578e-07 0.00114764 -0.225
4.51942e-07 0.00114342 -0.22125 4.3949e-07 0.00113922 -0.2175 4.23447e-07 0.0011342 -0.21375 4.03754e-07
0.00112836 -0.21 3.81953e-07 0.00112206 -0.20625 3.60199e-07 0.0011158 -0.2025 3.38646e-07 0.00110959
-0.19875 3.15541e-07 0.00110221 -0.195 2.90873e-07 0.00109368 -0.19125 2.65478e-07 0.00108461 -0.1875
2.40202e-07 0.00107562 -0.18375 2.13772e-07 0.00106672 -0.18 1.8843e-07 0.00105629 -0.17625 1.62828e-07
0.00104436 -0.1725 1.37255e-07 0.00103193 -0.16875 1.1189e-07 0.00101966 -0.165498 8.95124e-08 0.00100917
-0.162247 6.63596e-08 0.000997316 -0.158995 4.18597e-08 0.000984118 -0.155744 1.6666e-08 0.000970208 -0.15357
2.63956e-12 0.000961057 -0.152856 -5.43363e-09 0.000958082 -0.152142 -1.08576e-08 0.000955117 -0.151428 -1.62693e-08
0.000952163 -0.150714 -2.16687e-08 0.000949219 -0.15 -2.70561e-08 0.000946285 -0.14625 -5.52989e-08 0.000930929
-0.1425 -8.65996e-08 0.000913514 -0.13875 -1.20868e-07 0.000894105 -0.135 -1.54851e-07 0.000874959 -0.13125
-1.88279e-07 0.00085626 -0.1275 -2.19933e-07 0.000837997 -0.12375 -2.58973e-07 0.000817634 -0.12 -3.03065e-07
0.000795594 -0.11625 -3.46236e-07 0.000774187 -0.1125 -3.88519e-07 0.000753395 -0.10875 -4.27307e-07 0.000733196
-0.105 -4.72667e-07 0.000710958 -0.10125 -5.19973e-07 0.000687752 -0.0975 -5.6611e-07 0.000665332 -0.0937499
-6.11123e-07 0.00064367 -0.0899999 -6.55237e-07 0.000622737 -0.0862499 -7.06328e-07 0.000600196 -0.0824999 -7.59275e-07
0.000577563 -0.0787499 -8.10751e-07 0.000555793 -0.0749999 -8.60818e-07 0.000534851 -0.0712499 -9.09702e-07 0.000514704
-0.0674999 -9.72047e-07 0.000494384 -0.0637499 -1.03507e-06 0.000474702 -0.0599999 -1.09629e-06 0.000455794 -0.0562499
-1.15579e-06 0.000437632 -0.0524999 -1.20588e-06 0.000420182 -0.0487498 -1.27392e-06 0.000405049 -0.0449998 -1.34029e-06
0.000390445 -0.0412498 -1.40505e-06 0.000376355 -0.0374998 -1.46826e-06 0.000362759 -0.0337498 -1.53001e-06 0.000349642
-0.0299998 -1.60077e-06 0.000340758 -0.0262498 -1.67046e-06 0.000332092 -0.0224998 -1.73912e-06 0.000323639 -0.0187499
-1.80677e-06 0.000315394 -0.0149999 -1.87323e-06 0.000307353 -0.0112499 -1.95682e-06 0.000303541 -0.0074999 -2.04002e-06
0.000299774 -0.00374991 -2.12284e-06 0.000296053 6.11909e-08 -2.20528e-06 0.000292376 0.00375005 -2.27478e-06 0.000288745
0.00750005 -2.35486e-06 0.000285161 0.01125 -2.43453e-06 0.000281619 0.015 -2.51379e-06 0.000278121 0.01875
-2.59265e-06 0.000274664 0.0225 -2.67667e-06 0.000273346 0.02625 -2.77255e-06 0.000272035 0.03 -2.86847e-06
0.00027073 0.03375 -2.96445e-06 0.000269431 0.0375 -3.06049e-06 0.000268138 0.04125 -3.15594e-06 0.00026742
0.045 -3.26404e-06 0.000266704 0.04875 -3.37234e-06 0.000265991 0.0525 -3.48083e-06 0.000265279 0.05625
[...]
POINT_DATA 20410
FIELD attributes 3
age 1 20410 float
0 7.31475e-05 0.000146299 0.000219455 0.000292615 0.000365779 0.000555007 0.000744235 0.000933464 0.00112271 0.00131199
0.00150131 0.00169063 0.00187995 0.00206929 0.00225866 0.00244808 0.00263749 0.0028269 0.00301634 0.00320581
0.00339533 0.00358485 0.00377436 0.0039639 0.00415348 0.00433482 0.00451616 0.0046975 0.00487886 0.00509548
0.00509673 0.00509797 0.00509921 0.00510046 0.0051017 0.00529144 0.00548123 0.00567107 0.00586093 0.00605079
0.00624066 0.00643057 0.00662054 0.00681053 0.00700053 0.00703201 0.00706349 0.00709497 0.00712646 0.0071508
0.00731078 0.0074708 0.00763085 0.00779091 0.00795096 0.00814109 0.00833128 0.00852153 0.00871181 0.00890208
0.00909236 0.0092827 0.0094731 0.00966353 0.00985397 0.0100444 0.0102349 0.0104255 0.0106161 0.0108067
0.0109972 0.0111879 0.0113786 0.0115694 0.0117602 0.011951 0.0121418 0.0123327 0.0125237 0.0127146
0.0129056 0.0130966 0.0132877 0.0134789 0.01367 0.0138612 0.0140524 0.0142437 0.0144351 0.0146265
0.0148178 0.0150093 0.0152008 0.0153924 0.015584 0.0157756 0.0159673 0.0161591 0.0163509 0.0165428
0.0167104 0.0168781 0.0170458 0.0172137 0.017353 0.017383 0.0174129 0.0174429 0.0174729 0.0175029
0.017695 0.0178872 0.0180796 0.018272 0.0184644 0.0186568 0.0188493 0.019042 0.0192347 0.0194274
0.0196202 0.019813 0.0200061 0.0201991 0.0203922 0.0205853 0.0207784 0.0209715 0.0211647 0.021358
0.0215515 0.021745 0.0219385 0.0221321 0.0223258 0.0223921 0.0224583 0.0225245 0.0225908 0.022657
0.0227847 0.0229124 0.0230402 0.023168 0.0232959 0.0234903 0.0236847 0.0238792 0.0240737 0.0242684
0.0244634 0.0246583 0.0248533 0.0250483 0.0252437 0.0254392 0.0256347 0.0258303 0.026026 0.0262219
0.0264181 0.0266143 0.0268105 0.0270069 0.0272036 0.0274005 0.0275974 0.0277944 0.0279915 0.0281889
0.0283867 0.0285844 0.0287821 0.0289801 0.0291784 0.029377 0.0295757 0.0297743 0.0299732 0.0301725
0.0303721 0.0305717 0.0307714 0.0309713 0.0311716 0.0313724 0.0315731 0.0317738 0.0319749 0.0321764
0.0323783 0.0325803 0.0327822 0.0329845 0.0331873 0.0333905 0.0335938 0.0337971 0.0340007 0.0342049
0.0344096 0.0346143 0.034819 0.0350241 0.0352298 0.035436 0.0356422 0.0358485 0.0360551 0.0362624
0.0364702 0.0366787 0.0368878 0.0370973 0.0373068 0.0375162 0.0377263 0.037937 0.0381481 0.0383592
0.0385703 0.0387819 0.0389941 0.0392067 0.0394192 0.0396316 0.0398445 0.040058 0.0402716 0.0404852
0.0406986 0.0409124 0.0411266 0.0413408 0.0415549 0.0417688 0.0419828 0.0421968 0.0424108 0.0426245
0.0428379 0.0430511 0.0432639 0.0434763 0.0436884 0.043872 0.044055 0.0442373 0.0444192 0.0445405
0.0445803 0.0446202 0.0446599 0.0446997 0.0447395 0.0449482 0.0451556 0.0453614 0.0455668 0.0457718
0.0459763 0.0461787 0.0463793 0.0465794 0.0467792 0.0469787 0.0471754 0.0473703 0.047565 0.0477594
0.0479536 0.0481445 0.0483341 0.0485235 0.0487129 0.0489023 0.049088 0.0492731 0.0494584 0.0496438
0.0498292 0.0500113 0.0501937 0.0503762 0.0505588 0.0507417 0.0509225 0.0511034 0.0512845 0.0514658
0.0516472 0.0518279 0.0520086 0.0521895 0.0523704 0.0525514 0.0527325 0.0529136 0.0530948 0.0532761
0.0534575 0.0536389 0.0538204 0.0540018 0.0541833 0.0543651 0.0545469 0.0547287 0.0549105 0.0550923
0.0552745 0.0554567 0.0556388 0.055821 0.0560032 0.0561856 0.0563681 0.0565506 0.0567331 0.0569156
0.0570984 0.0572812 0.0574639 0.0576467 0.0578295 0.0580126 0.0581957 0.0583788 0.0585619 0.0587449
0.0589283 0.0591117 0.0592951 0.0594785 0.0596618 0.0598455 0.0600292 0.0602129 0.0603966 0.0605802
0.0607642 0.0609482 0.0611322 0.0613162 0.0615001 0.0616844 0.0618687 0.0620529 0.0622372 0.0624215
0.062606 0.0627905 0.0629751 0.0631596 0.0633441 0.0635289 0.0637137 0.0638985 0.0640833 0.0642681
0.0644531 0.0646381 0.0648231 0.0650081 0.0651931 0.0653783 0.0655635 0.0657487 0.0659339 0.0661192
0.0663046 0.0664899 0.0666753 0.0668607 0.0670461 0.0672317 0.0674174 0.067603 0.0677887 0.0679744
0.0681601 0.0683459 0.0685317 0.0687176 0.0689034 0.0690892 0.0692751 0.0694611 0.069647 0.069833
0.0700189 0.070205 0.070391 0.070577 0.0707631 0.0709492 0.0711353 0.0713214 0.0715076 0.0716937
0.0718799 0.0720661 0.0722523 0.0724386 0.0726248 0.072811 0.0729973 0.0731836 0.0733699 0.0735562
0.0737425 0.0739289 0.0741152 0.0743016 0.0744879 0.0746743 0.0748607 0.0750471 0.0752335 0.0754198
0.0756062 0.0757927 0.0759791 0.0761655 0.0763519 0.0765383 0.0767247 0.0769111 0.0770975 0.0772839
0.0774704 0.0776568 0.0778432 0.0780296 0.078216 0.0784024 0.0785888 0.0787752 0.0789615 0.0791479
0.0793343 0.0795207 0.0797071 0.0798935 0.0800798 0.0802662 0.0804526 0.080639 0.0808254 0.0810118
0.0811981 0.0813845 0.0815709 0.0817574 0.0819438 0.0821302 0.0823166 0.082503 0.0826894 0.0828758
0.0830622 0.0832487 0.0834351 0.0836216 0.083808 0.0839945 0.084181 0.0843675 0.084554 0.0847404
0.084927 0.0851135 0.0853 0.0854866 0.0856731 0.0858597 0.0860463 0.0862328 0.0864194 0.086606
0.0867926 0.0869793 0.0871659 0.0873525 0.0875391 0.0877258 0.0879124 0.0880991 0.0882857 0.0884724
0.0886591 0.0888458 0.0890325 0.0892192 0.0894058 0.0895926 0.0897793 0.089966 0.0901527 0.0903394
0.0905262 0.0907129 0.0908997 0.0910864 0.0912732 0.0914599 0.0916467 0.0918335 0.0920202 0.092207
0.0923938 0.0925806 0.0927674 0.0929542 0.093141 0.0933278 0.0935146 0.0937015 0.0938883 0.0940751
0.094262 0.0944488 0.0946357 0.0948226 0.0950094 0.0951963 0.0953832 0.0955702 0.0957571 0.095944
0.096131 0.0963179 0.0965049 0.0966919 0.0968789 0.0970659 0.0972531 0.0974403 0.0976275 0.0978146
0.0980018 0.0981892 0.0983765 0.0985639 0.0987512 0.0989385 0.0991261 0.0993136 0.0995011 0.0996886
0.0998761 0.100064 0.100251 0.100439 0.100626 0.100814 0.101001 0.101189 0.101376 0.101563
0.101751 0.101938 0.102125 0.102312 0.102499 0.102686 0.102873 0.10306 0.103247 0.103434
0.10362 0.103807 0.103993 0.10418 0.104366 0.104553 0.104739 0.104926 0.105112 0.105298
0.105485 0.105671 0.105858 0.106044 0.106231 0.106417 0.106604 0.10679 0.106977 0.107164
0.10735 0.107537 0.107724 0.107911 0.108097 0.108284 0.108471 0.108658 0.108845 0.109032
0.109219 0.109407 0.109594 0.109781 0.109968 0.110156 0.110343 0.110531 0.110718 0.110906
0.111093 0.111281 0.111469 0.111656 0.111844 0.112032 0.112219 0.112407 0.112595 0.112783
0.11297 0.113158 0.113346 0.113534 0.113722 0.11391 0.114098 0.114286 0.114474 0.114662
0.11485 0.115038 0.115226 0.115414 0.115602 0.11579 0.115979 0.116167 0.116355 0.116543
0.116731 0.116919 0.117107 0.117295 0.117483 0.117672 0.11786 0.118048 0.118236 0.118424
0.118612 0.1188 0.118988 0.119177 0.119365 0.119553 0.119741 0.119929 0.120117 0.120305
0.120493 0.120681 0.12087 0.121058 0.121246 0.121434 0.121622 0.12181 0.121998 0.122186
0.122374 0.122562 0.12275 0.122939 0.123127 0.123315 0.123503 0.123691 0.123879 0.124067
0.124255 0.124443 0.124631 0.124819 0.125007 0.125195 0.125383 0.125571 0.125759 0.125947
0.126135 0.126324 0.126512 0.1267 0.126888 0.127076 0.127264 0.127452 0.12764 0.127828
0.128016 0.128204 0.128392 0.12858 0.128768 0.128956 0.129144 0.129332 0.12952 0.129708
0.129896 0.130084 0.130272 0.13046 0.130648 0.130836 0.131024 0.131212 0.1314 0.131588
0.131776 0.131964 0.132152 0.13234 0.132528 0.132716 0.132904 0.133092 0.13328 0.133468
0.133657 0.133845 0.134033 0.134221 0.134409 0.134597 0.134785 0.134973 0.135161 0.135349
0.135537 0.135725 0.135913 0.136101 0.136289 0.136477 0.136665 0.136853 0.137041 0.137229
0.137417 0.137606 0.137794 0.137982 0.13817 0.138358 0.138546 0.138734 0.138922 0.13911
0.139298 0.139486 0.139674 0.139862 0.140051 0.140239 0.140427 0.140615 0.140803 0.140991
0.141179 0.141367 0.141555 0.141743 0.141931 0.142119 0.142308 0.142496 0.142684 0.142872
0.14306 0.143248 0.143436 0.143624 0.143812 0.144 0.144188 0.144377 0.144565 0.144753
0.144941 0.145129 0.145317 0.145505 0.145693 0.145881 0.146069 0.146257 0.146445 0.146634
0.146822 0.14701 0.147198 0.147386 0.147574 0.147762 0.14795 0.148138 0.148326 0.148514
0.148702 0.14889 0.149078 0.149266 0.149454 0.149642 0.14983 0.150019 0.150207 0.150395
0.150583 0.150771 0.150959 0.151147 0.151335 0.151711 0.152087 0.152463 0.152839 0.153215
0.153966 0.154717 0.155467 0.156218 0.156969 0.15847 0.15997 0.161471 0.162971 0.164471
0.165972 0.167472 0.168972 0.170473 0.171973 0.174973 0.177974 0.180975 0.183975 0.186976
0.192976 0.198977 0.204977 0.210977 0.216978 0.222978 0.228978 0.234978 0.240979 0.246979
0.252979 0.258979 0.264979 0.27098 0.27698 0.28298 0.28898 0.29498 0.30098 0.306981
0.312981 0.318981 0.324981 0.330981 0.336981 0.342982 0.348982 0.354982 0.360982 0.366982
0.372983 0.378983 0.384983 0.390983 0.396983 0.402983 0.408995 0.415019 0.421055 0.427103
0 7.40016e-05 0.000148008 0.000222019 0.000296034 0.000370055 0.000561501 0.000752987 0.000944513 0.00113608
0.00132768 0.00151933 0.00171101 0.00190274 0.00209451 0.00228632 0.00247817 0.00267007 0.00286201 0.00305399
0.00324602 0.00329962 0.00335323 0.00340684 0.00346045 0.00350917 0.00364867 0.00378819 0.00392774 0.00406731
0.0042069 0.00439921 0.00459157 0.00478398 0.00497644 0.00516895 0.0053615 0.00555412 0.00574678 0.0059395
0.00613228 0.00632511 0.00651799 0.00671093 0.00690393 0.00709699 0.0072901 0.00748327 0.00767651 0.0078698
0.00806316 0.00825657 0.00845005 0.0086436 0.00883721 0.00903088 0.00922462 0.00941843 0.00961231 0.00980625
0.0100003 0.0101943 0.0103885 0.0105827 0.010777 0.0109714 0.0111658 0.0113604 0.011555 0.0117497
0.0119444 0.0121393 0.0123342 0.0125292 0.0127243 0.0129195 0.0131147 0.0133101 0.0135055 0.0137011
0.0138967 0.0140924 0.0142883 0.0144842 0.0146803 0.0148764 0.0150727 0.0152691 0.0154655 0.0156622
0.0158589 0.0160557 0.0162527 0.0164498 0.016647 0.0168444 0.0170419 0.0172395 0.0174373 0.0176351
0.0178332 0.0180314 0.0182297 0.0184281 0.0186267 0.0188255 0.0190244 0.0192235 0.0194227 0.019622
0.0198216 0.0200212 0.0202211 0.0204211 0.0206212 0.0208216 0.0210221 0.0212228 0.0214236 0.0216247
0.0218259 0.0220273 0.0222289 0.0224306 0.0226326 0.0228348 0.0230371 0.0232397 0.0234425 0.0236455
0.0238487 0.0240521 0.0242558 0.0244596 0.0246638 0.0248681 0.0249873 0.0251065 0.0252258 0.0253452
0.0254535 0.0255415 0.0256295 0.0257176 0.0258057 0.0258939 0.0260998 0.0263059 0.0265123 0.0267191
0.0269261 0.0271334 0.027341 0.0275489 0.0277571 0.0279657 0.0281746 0.0283838 0.0285934 0.0288033
0.0290136 0.0292243 0.0294353 0.0296468 0.0298586 0.0300708 0.0302835 0.0304965 0.0307101 0.030924
0.0311384 0.0313533 0.0315687 0.0317845 0.0320008 0.0322177 0.0324351 0.032653 0.0328715 0.0330905
0.0333101 0.0335303 0.0337511 0.0339725 0.0341946 0.0344173 0.0346407 0.0348648 0.0350896 0.0353151
0.0355413 0.0357683 0.0359961 0.0362246 0.036454 0.0366842 0.0369153 0.0371472 0.0373801 0.0376139
0.0378487 0.0380843 0.038321 0.0385587 0.0387974 0.0390372 0.0392781 0.0395202 0.0397634 0.0400078
0.0402534 0.0405001 0.0407481 0.0409973 0.0412478 0.0414997 0.0417529 0.0420075 0.0422636 0.042521
0.04278 0.0430402 0.0433017 0.0435646 0.0438289 0.044095 0.0443625 0.0446313 0.0449015 0.0451729
0.0454464 0.0456257 0.0458054 0.0459853 0.0461656 0.0462736 0.0463841 0.0464946 0.0466053 0.0467161
0.0468274 0.0469814 0.0471354 0.0472893 0.0474432 0.047529 0.0476679 0.0478067 0.0479454 0.0480841
0.0482236 0.0485026 0.0487799 0.0490555 0.0493293 0.0496066 0.0497751 0.0499423 0.0501079 0.0502722
0.0503934 0.0505025 0.050611 0.0507189 0.0508263 0.0509337 0.0511899 0.0514407 0.0516865 0.0519273
0.0521648 0.0521888 0.0522127 0.0522365 0.0522603 0.0522842 0.0524894 0.0526901 0.0528866 0.0530791
0.0532658 0.0533853 0.053503 0.0536189 0.0537332 0.0538776 0.05395 0.0540218 0.054093 0.0541636
0.0542332 0.0544136 0.0545904 0.0547636 0.0549334 0.0550966 0.0552396 0.055381 0.0555209 0.0556592
0.0558897 0.055903 0.0559162 0.0559295 0.0559427 0.0559575 0.0560958 0.0562334 0.0563705 0.0565071
0.0566423 0.0567904 0.0569387 0.0570872 0.0572358 0.0573844 0.0575331 0.0576822 0.0578316 0.0579814
0.0581315 0.0582821 0.058433 0.0585844 0.0587362 0.0588884 0.059041 0.0591939 0.0593471 0.0595008
0.0596548 0.0598092 0.059964 0.0601192 0.0602747 0.0604306 0.0605868 0.0607434 0.0609003 0.0610576
0.0612153 0.0613733 0.0615317 0.0616904 0.0618496 0.0620091 0.0621689 0.0623292 0.0624898 0.0626508
0.0628121 0.0629739 0.0631361 0.0632987 0.0634617 0.0636251 0.0637888 0.063953 0.0641175 0.0642824
0.0644478 0.0646135 0.0647796 0.0649462 0.0651131 0.0652803 0.065448 0.065616 0.0657844 0.0659531
0.0661222 0.0662917 0.0664615 0.0666316 0.0668021 0.066973 0.0671441 0.0673156 0.0674874 0.0676594
0.0678318 0.0680045 0.0681775 0.0683508 0.0685243 0.0686981 0.0688722 0.0690466 0.0692212 0.069396
0.0695711 0.0697465 0.0699221 0.0700979 0.070274 0.0704502 0.0706268 0.0708035 0.0709804 0.0711575
0.0713348 0.0715124 0.0716901 0.0718681 0.0720462 0.0722245 0.072403 0.0725817 0.0727605 0.0729396
0.0731188 0.0732982 0.0734778 0.0736575 0.0738374 0.0740175 0.0741977 0.074378 0.0745585 0.0747391
0.0749199 0.0751008 0.0752819 0.075463 0.0756443 0.0758257 0.0760072 0.0761888 0.0763705 0.0765522
0.0767341 0.0769161 0.0770981 0.0772802 0.0774623 0.0776445 0.0778268 0.0780091 0.0781914 0.0783738
0.0785561 0.0787384 0.0789208 0.0791031 0.0792853 0.0794676 0.0796499 0.0798321 0.0800143 0.0801964
0.0803786 0.0805606 0.0807426 0.0809246 0.0811065 0.0812884 0.0814702 0.081652 0.0818337 0.0820154
0.082197 0.0823786 0.0825601 0.0827416 0.082923 0.0831044 0.0832858 0.0834672 0.0836486 0.08383
0.0840114 0.0841928 0.0843742 0.0845557 0.0847372 0.0849187 0.0851002 0.0852818 0.0854635 0.0856452
0.0858269 0.0860087 0.0861905 0.0863723 0.0865542 0.0867362 0.0869182 0.0871002 0.0872824 0.0874646
0.0876468 0.0878291 0.0880114 0.0881937 0.0883761 0.0885585 0.088741 0.0889235 0.0891061 0.0892887
0.0894713 0.089654 0.0898366 0.0900193 0.090202 0.0903847 0.0905675 0.0907502 0.090933 0.0911158
0.0912987 0.0914815 0.0916644 0.0918472 0.0920301 0.092213 0.0923959 0.0925788 0.0927618 0.0929447
0.0931277 0.0933107 0.0934936 0.0936766 0.0938596 0.0940426 0.0942256 0.0944087 0.0945918 0.0947749
0.094958 0.0951412 0.0953244 0.0955076 0.0956909 0.0958742 0.0960576 0.096241 0.0964245 0.0966081
0.0967918 0.0969755 0.0971592 0.0973431 0.0975271 0.0977111 0.0978953 0.0980796 0.0982641 0.0984487
0.0986335 0.0988183 0.0990034 0.0991887 0.0993742 0.09956 0.099746 0.0999323 0.100119 0.100306
0.100493 0.100681 0.10087 0.101059 0.101248 0.101437 0.101627 0.101816 0.102005 0.102195
0.102384 0.102574 0.102764 0.102953 0.103141 0.10333 0.103518 0.103705 0.103891 0.104076
0.104261 0.104284 0.104306 0.104329 0.104352 0.104375 0.104535 0.104694 0.104853 0.105011
0.105169 0.105348 0.105526 0.105704 0.105881 0.106057 0.106232 0.106408 0.106582 0.106757
0.106931 0.107106 0.10728 0.107454 0.107629 0.107804 0.107979 0.108154 0.108329 0.108504
0.108681 0.108857 0.109035 0.109213 0.109392 0.109571 0.109751 0.109932 0.110113 0.110296
0.110479 0.110664 0.110849 0.111035 0.111222 0.11141 0.111599 0.111789 0.11198 0.112171
0.112364 0.112557 0.112751 0.112946 0.113142 0.113338 0.113535 0.113733 0.113931 0.11413
0.11433 0.11453 0.114731 0.114932 0.115134 0.115336 0.115539 0.115742 0.115945 0.116148
0.116352 0.116557 0.116761 0.116966 0.11717 0.117376 0.117581 0.117786 0.117992 0.118198
0.118404 0.11861 0.118816 0.119022 0.119228 0.119434 0.119641 0.119847 0.120054 0.12026
0.120467 0.120674 0.12088 0.121087 0.121294 0.1215 0.121707 0.121914 0.12212 0.122327
0.122534 0.12274 0.122947 0.123153 0.12336 0.123567 0.123773 0.12398 0.124186 0.124393
0.124599 0.124806 0.125012 0.125219 0.125425 0.125631 0.125838 0.126044 0.12625 0.126457
0.126663 0.126869 0.127075 0.127281 0.127487 0.127693 0.127899 0.128105 0.128312 0.128518
0.128724 0.128929 0.129135 0.129341 0.129547 0.129753 0.129958 0.130164 0.13037 0.130576
0.130782 0.130987 0.131193 0.131398 0.131604 0.131809 0.132014 0.13222 0.132425 0.132631
0.132836 0.133041 0.133246 0.133451 0.133656 0.133861 0.134066 0.134271 0.134476 0.134681
0.134886 0.13509 0.135295 0.135499 0.135704 0.135908 0.136113 0.136317 0.136521 0.136725
0.136929 0.137133 0.137337 0.137541 0.137745 0.137948 0.138152 0.138355 0.138559 0.138762
0.138965 0.139169 0.139372 0.139575 0.139777 0.13998 0.140183 0.140386 0.140588 0.140791
0.140993 0.141196 0.141398 0.1416 0.141802 0.142004 0.142206 0.142407 0.142609 0.142811
0.143012 0.143214 0.143415 0.143616 0.143817 0.144018 0.144219 0.144419 0.14462 0.144821
0.145021 0.145221 0.145422 0.145622 0.145822 0.146022 0.146221 0.146421 0.146621 0.14682
0.14702 0.147219 0.147418 0.147618 0.147817 0.148016 0.148214 0.148413 0.148612 0.148811
0.149009 0.149207 0.149406 0.149604 0.149802 0.15 0.150198 0.150396 0.150594 0.150792
0.150989 0.151187 0.151384 0.151582 0.151779 0.151976 0.152173 0.15237 0.152567 0.152764
0.152961 0.153158 0.153355 0.153551 0.153748 0.153944 0.154141 0.154337 0.154533 0.154729
0.154926 0.155122 0.155318 0.155513 0.155709 0.155905 0.156296 0.156687 0.157078 0.157468
0.157859 0.158639 0.159418 0.160197 0.160974 0.161749 0.162923 0.164096 0.165268 0.166438
0.167615 0.167989 0.168362 0.168735 0.169107 0.169479 0.171016 0.172551 0.174085 0.175616
0.177146 0.180206 0.183265 0.186315 0.189357 0.19239 0.198438 0.204487 0.210535 0.216582
0.222617 0.228638 0.234659 0.24068 0.246701 0.252722 0.25874 0.264759 0.270778 0.276796
0.282815 0.288833 0.294851 0.300869 0.306888 0.312906 0.318924 0.324942 0.33096 0.336978
0.342996 0.349014 0.355032 0.361049 0.367067 0.373085 0.379103 0.385121 0.391139 0.397157
0.403174 0.409192 0.415222 0.421263 0.427317 0.433382 0 7.39826e-05 0.000147971 0.000221965
0.000295964 0.00036997 0.000561377 0.000752825 0.000944312 0.00113584 0.0013274 0.00151901 0.00171066 0.00190235
0.00209408 0.00228585 0.00238027 0.0024747 0.00256914 0.00266359 0.00278913 0.00288037 0.00297162 0.00306289
0.00315416 0.00324544 0.00343748 0.00362957 0.0038217 0.00401389 0.00420612 0.00439841 0.00459074 0.00478312
0.00497556 0.00516805 0.00536059 0.00555319 0.00574584 0.00593855 0.00613131 0.00632413 0.00651701 0.00670995
0.00690295 0.00709601 0.00728912 0.00748231 0.00767555 0.00786886 0.00806224 0.00825568 0.00844919 0.00864277
0.00883642 0.00903013 0.009137 0.00924388 0.00935079 0.00945772 0.00960874 0.00968696 0.00976519 0.00984343
0.00992168 0.00999995 0.0101941 0.0103884 0.0105827 0.0107772 0.0109717 0.0111663 0.011361 0.0115559
0.0117508 0.0119458 0.011975 0.0120042 0.0120335 0.0120627 0.0120881 0.0122548 0.0124216 0.0125885
0.0127555 0.0129226 0.0131182 0.013314 0.0135099 0.0137059 0.013902 0.0140983 0.0142946 0.0144911
0.0146877 0.0148844 0.0150812 0.0152781 0.0154752 0.0156723 0.0158696 0.0160669 0.0162644 0.016462
0.0166598 0.0168576 0.0170555 0.0172536 0.0174518 0.0176501 0.0178485 0.018047 0.0182457 0.0184445
0.0186434 0.0188425 0.0190417 0.019241 0.0194404 0.01964 0.0198397 0.0200278 0.0202161 0.0204045
0.020593 0.0206841 0.0207154 0.0207466 0.0207779 0.0208092 0.0208405 0.0210411 0.0212419 0.0214428
0.0216439 0.0218452 0.0220466 0.0222482 0.02245 0.022652 0.0228542 0.0230565 0.0232591 0.0234618
0.0236648 0.0238679 0.0240713 0.0242749 0.0244787 0.0246827 0.024887 0.0250915 0.0252962 0.0255012
0.0257065 0.025912 0.0261177 0.0263238 0.0265301 0.0267367 0.0269436 0.0271508 0.0273583 0.0275661
0.0277742 0.0279827 0.0281915 0.0284006 0.0286101 0.0288199 0.0290301 0.0292407 0.0294517 0.029663
0.0298748 0.030087 0.0301298 0.0301725 0.0302153 0.0302582 0.0302999 0.0304703 0.030641 0.030812
0.0309834 0.031155 0.0313699 0.0315853 0.0318013 0.0320178 0.0322348 0.0324523 0.0326705 0.0328893
0.0331086 0.0333286 0.0335492 0.0337705 0.0339925 0.0342152 0.0344386 0.0346627 0.0348877 0.0351134
0.03534 0.0355675 0.0357957 0.0360249 0.0362551 0.0364862 0.0367184 0.0369515 0.0371858 0.0374212
0.0376579 0.0378956 0.0381346 0.0383749 0.0386166 0.0388597 0.0391042 0.0393502 0.0395979 0.0398473
0.0400985 0.0403514 0.040606 0.0408626 0.0411214 0.0413823 0.0416453 0.0419106 0.0421784 0.042449
0.0427223 0.0429984 0.0432779 0.0435606 0.0438468 0.0441364 0.0444299 0.0447263 0.0450271 0.0453324
0.0456422 0.0459577 0.0462759 0.046599 0.0469271 0.0472603 0.047604 0.0478708 0.0481415 0.0484154