# vtk DataFile Version 2.0
tracks
ASCII
DATASET POLYDATA
POINTS 19665 float
-1.001 1e-07 0.0011 -0.99955 9.90808e-08 0.00110002 -0.9981 9.81635e-08 0.00110004 -0.99665 9.72482e-08
0.00110007 -0.9952 9.63349e-08 0.0011001 -0.99375 9.54235e-08 0.00110014 -0.99 9.3053e-08 0.00110023
-0.98625 9.06996e-08 0.00110033 -0.9825 8.83455e-08 0.00110043 -0.97875 8.59939e-08 0.00110054 -0.975
8.3648e-08 0.00110067 -0.97125 8.12921e-08 0.00110082 -0.9675 7.89511e-08 0.00110097 -0.96375 7.66093e-08
0.00110112 -0.96 7.42725e-08 0.00110127 -0.95625 7.19464e-08 0.00110143 -0.9525 6.96244e-08 0.0011016
-0.94875 6.73083e-08 0.00110177 -0.945 6.49913e-08 0.00110194 -0.94125 6.26704e-08 0.00110211 -0.9375
6.03427e-08 0.00110228 -0.93375 5.79966e-08 0.00110246 -0.93 5.56613e-08 0.00110264 -0.92625 5.33253e-08
0.00110281 -0.9225 5.09798e-08 0.00110299 -0.91875 4.8617e-08 0.00110317 -0.915 4.62274e-08 0.00110336
-0.91125 4.38466e-08 0.00110354 -0.9075 4.14649e-08 0.00110372 -0.90375 3.9082e-08 0.00110391 -0.9
3.66978e-08 0.0011041 -0.89625 3.43049e-08 0.00110429 -0.8925 3.19178e-08 0.00110449 -0.88875 2.9529e-08
0.00110469 -0.885 2.71389e-08 0.00110489 -0.88125 2.47478e-08 0.00110509 -0.8775 2.23539e-08 0.0011053
-0.87375 1.99299e-08 0.00110551 -0.87 1.74735e-08 0.00110572 -0.86625 1.49999e-08 0.00110593 -0.8625
1.25252e-08 0.00110615 -0.85875 1.00487e-08 0.00110636 -0.855 7.5199e-09 0.00110658 -0.85125 4.9379e-09
0.00110681 -0.8475 2.3274e-09 0.00110704 -0.844158 1.67816e-17 0.00110724 -0.844076 -5.68642e-11 0.00110725
-0.843995 -1.13729e-10 0.00110725 -0.843913 -1.70594e-10 0.00110726 -0.843832 -2.2746e-10 0.00110726 -0.84375
-2.84326e-10 0.00110727 -0.84 -2.89704e-09 0.0011075 -0.83625 -5.56735e-09 0.00110773 -0.8325 -8.2953e-09
0.00110797 -0.82875 -1.10543e-08 0.00110821 -0.825 -1.38145e-08 0.00110846 -0.82125 -1.65728e-08 0.0011087
-0.8175 -1.93864e-08 0.00110895 -0.81375 -2.2252e-08 0.00110921 -0.81 -2.51459e-08 0.00110947 -0.80625
-2.80412e-08 0.00110973 -0.8025 -3.09312e-08 0.00110999 -0.79875 -3.38785e-08 0.00111025 -0.795 -3.68761e-08
0.00111053 -0.79125 -3.99013e-08 0.00111081 -0.7875 -4.29281e-08 0.00111109 -0.78375 -4.59537e-08 0.00111136
-0.78 -4.90453e-08 0.00111165 -0.77625 -5.21999e-08 0.00111194 -0.7725 -5.53891e-08 0.00111224 -0.76875
-5.858e-08 0.00111254 -0.765 -6.1769e-08 0.00111284 -0.76125 -6.50324e-08 0.00111314 -0.7575 -6.83657e-08
0.00111346 -0.75375 -7.17377e-08 0.00111378 -0.75 -7.51117e-08 0.0011141 -0.74625 -7.84667e-08 0.00111442
-0.7425 -8.19221e-08 0.00111475 -0.73875 -8.54558e-08 0.00111508 -0.735 -8.90332e-08 0.00111543 -0.73125
-9.26127e-08 0.00111577 -0.7275 -9.61673e-08 0.00111611 -0.72375 -9.98403e-08 0.00111647 -0.72 -1.03603e-07
0.00111683 -0.71625 -1.07416e-07 0.0011172 -0.7125 -1.11232e-07 0.00111756 -0.70875 -1.15015e-07 0.00111793
-0.705 -1.18927e-07 0.00111831 -0.70125 -1.22931e-07 0.0011187 -0.6975 -1.26987e-07 0.0011191 -0.69375
-1.31046e-07 0.00111949 -0.69 -1.35101e-07 0.00111989 -0.68625 -1.39261e-07 0.0011203 -0.6825 -1.43515e-07
0.00112072 -0.67875 -1.47824e-07 0.00112114 -0.675 -1.52136e-07 0.00112157 -0.67125 -1.56444e-07 0.00112199
-0.6675 -1.60854e-07 0.00112243 -0.66375 -1.65354e-07 0.00112288 -0.66 -1.69906e-07 0.00112334 -0.65625
-1.74463e-07 0.0011238 -0.6525 -1.78957e-07 0.00112426 -0.64875 -1.83615e-07 0.00112473 -0.645 -1.88366e-07
0.00112522 -0.64125 -1.93173e-07 0.00112571 -0.6375 -1.97984e-07 0.0011262 -0.63375 -2.02791e-07 0.00112669
-0.63 -2.07722e-07 0.0011272 -0.62625 -2.12763e-07 0.00112772 -0.6225 -2.1787e-07 0.00112825 -0.61875
-2.22981e-07 0.00112878 -0.615 -2.28089e-07 0.00112931 -0.61125 -2.33318e-07 0.00112986 -0.6075 -2.38653e-07
0.00113042 -0.60375 -2.44051e-07 0.00113099 -0.6 -2.49454e-07 0.00113156 -0.59625 -2.54855e-07 0.00113213
-0.5925 -2.60279e-07 0.0011327 -0.58875 -2.65709e-07 0.00113327 -0.585 -2.71198e-07 0.00113385 -0.58125
-2.76786e-07 0.00113445 -0.5775 -2.82329e-07 0.00113506 -0.57375 -2.88034e-07 0.00113568 -0.57 -2.93745e-07
0.00113629 -0.56625 -2.99524e-07 0.00113691 -0.5625 -3.05415e-07 0.00113756 -0.55875 -3.11245e-07 0.00113822
-0.555 -3.1727e-07 0.00113887 -0.55125 -3.23302e-07 0.00113953 -0.5475 -3.29415e-07 0.00114021 -0.54375
-3.35662e-07 0.00114089 -0.54 -3.42036e-07 0.0011416 -0.53625 -3.48442e-07 0.00114231 -0.5325 -3.54857e-07
0.00114302 -0.52875 -3.61362e-07 0.00114374 -0.525 -3.68012e-07 0.00114447 -0.52125 -3.74558e-07 0.00114523
-0.5175 -3.81387e-07 0.00114599 -0.51375 -3.88224e-07 0.00114675 -0.51 -3.95154e-07 0.00114752 -0.50625
-4.02226e-07 0.00114831 -0.5025 -4.09144e-07 0.00114912 -0.49875 -4.16401e-07 0.00114992 -0.495 -4.23669e-07
0.00115073 -0.49125 -4.31028e-07 0.00115156 -0.4875 -4.38527e-07 0.0011524 -0.48375 -4.4617e-07 0.00115326
-0.48 -4.53859e-07 0.00115412 -0.47625 -4.61561e-07 0.00115498 -0.4725 -4.6936e-07 0.00115585 -0.46875
-4.77305e-07 0.00115674 -0.465 -4.85406e-07 0.00115765 -0.46125 -4.93558e-07 0.00115856 -0.4575 -5.01725e-07
0.00115947 -0.45375 -5.09996e-07 0.00116039 -0.45 -5.18423e-07 0.00116133 -0.44625 -5.27022e-07 0.00116228
-0.4425 -5.35679e-07 0.00116323 -0.43875 -5.44353e-07 0.00116419 -0.435 -5.53132e-07 0.00116515 -0.43125
-5.62064e-07 0.00116613 -0.4275 -5.70519e-07 0.00116712 -0.42375 -5.79694e-07 0.0011681 -0.42 -5.88889e-07
0.00116909 -0.41625 -5.98193e-07 0.00117009 -0.4125 -6.07654e-07 0.00117109 -0.40875 -6.16508e-07 0.0011721
-0.405 -6.26233e-07 0.00117311 -0.40125 -6.35981e-07 0.00117412 -0.3975 -6.4585e-07 0.00117513 -0.39375
-6.55887e-07 0.00117614 -0.39 -6.66145e-07 0.00117715 -0.38625 -6.76487e-07 0.00117815 -0.3825 -6.86853e-07
0.00117916 -0.37875 -6.97354e-07 0.00118016 -0.375 -7.08038e-07 0.00118114 -0.37125 -7.18974e-07 0.00118211
-0.3675 -7.30006e-07 0.00118308 -0.36375 -7.41067e-07 0.00118405 -0.36 -7.52252e-07 0.00118499 -0.35625
-7.63603e-07 0.0011859 -0.3525 -7.73755e-07 0.00118677 -0.34875 -7.8547e-07 0.00118764 -0.345 -7.97216e-07
0.00118851 -0.34125 -8.09083e-07 0.00118933 -0.3375 -8.21106e-07 0.00119009 -0.33375 -8.33406e-07 0.00119079
-0.33 -8.45829e-07 0.00119149 -0.32625 -8.58287e-07 0.00119219 -0.3225 -8.70869e-07 0.00119281 -0.31875
-8.83611e-07 0.00119333 -0.315 -8.96669e-07 0.00119375 -0.31125 -9.09863e-07 0.00119417 -0.3075 -9.23096e-07
0.00119458 -0.30375 -9.36447e-07 0.00119489 -0.3 -9.49948e-07 0.00119503 -0.29625 -9.61126e-07 0.00119502
-0.2925 -9.75175e-07 0.00119477 -0.28875 -9.89316e-07 0.0011943 -0.285 -1.00353e-06 0.00119365 -0.28125
-1.01779e-06 0.001193 -0.2775 -1.02907e-06 0.00119235 -0.27375 -1.04368e-06 0.00119137 -0.27 -1.05824e-06
0.00119005 -0.26625 -1.07277e-06 0.00118849 -0.2625 -1.08733e-06 0.00118693 -0.25875 -1.09829e-06 0.00118538
-0.255 -1.11316e-06 0.00118334 -0.25125 -1.12787e-06 0.00118083 -0.2475 -1.14247e-06 0.00117797 -0.24375
-1.1571e-06 0.00117513 -0.24 -1.17214e-06 0.0011723 -0.23625 -1.18699e-06 0.00116883 -0.2325 -1.20147e-06
0.00116473 -0.22875 -1.21573e-06 0.00116021 -0.225 -1.23e-06 0.00115572 -0.22125 -1.23904e-06 0.00115125
-0.2175 -1.25325e-06 0.00114591 -0.21375 -1.26682e-06 0.00113972 -0.21 -1.28001e-06 0.00113303 -0.20625
-1.29321e-06 0.00112637 -0.2025 -1.3003e-06 0.00111977 -0.19875 -1.31344e-06 0.00111196 -0.195 -1.32564e-06
0.00110294 -0.19125 -1.33732e-06 0.00109335 -0.1875 -1.34902e-06 0.00108385 -0.18375 -1.36117e-06 0.00107444
-0.18 -1.37177e-06 0.00106351 -0.17625 -1.38072e-06 0.00105107 -0.1725 -1.389e-06 0.00103812 -0.16875
-1.39731e-06 0.00102535 -0.165 -1.4063e-06 0.00101275 -0.16125 -1.41287e-06 0.000998373 -0.1575 -1.417e-06
0.000982254 -0.15375 -1.42056e-06 0.000965895 -0.15 -1.42421e-06 0.000949838 -0.14625 -1.42867e-06 0.000934076
-0.1425 -1.42877e-06 0.000916315 -0.13875 -1.42462e-06 0.000896619 -0.135 -1.42036e-06 0.000877184 -0.13125
-1.41637e-06 0.000858208 -0.1275 -1.40346e-06 0.000839675 -0.12375 -1.39588e-06 0.000819075 -0.12 -1.38466e-06
0.000796817 -0.11625 -1.37395e-06 0.000775201 -0.1125 -1.36372e-06 0.000754207 -0.10875 -1.34484e-06 0.000733812
-0.105 -1.32812e-06 0.000711393 -0.10125 -1.30715e-06 0.000688013 -0.0975 -1.28705e-06 0.000665426 -0.0937499
-1.26778e-06 0.000643604 -0.0899999 -1.24972e-06 0.000622517 -0.0862499 -1.22661e-06 0.000599893 -0.0824999 -1.20229e-06
0.000577206 -0.0787499 -1.17904e-06 0.000555381 -0.0749999 -1.15683e-06 0.000534385 -0.0712499 -1.13585e-06 0.000514184
-0.0674999 -1.1137e-06 0.000493896 -0.0637499 -1.09226e-06 0.000474255 -0.0599999 -1.07181e-06 0.000455382 -0.0562499
-1.05231e-06 0.000437248 -0.0524999 -1.02683e-06 0.000419822 -0.0487498 -1.00065e-06 0.000404737 -0.0449998 -9.75438e-07
0.000390176 -0.0412498 -9.51175e-07 0.000376123 -0.0374998 -9.27826e-07 0.000362561 -0.0337498 -9.05387e-07 0.000349471
-0.0299998 -8.75133e-07 0.000340834 -0.0262498 -8.45552e-07 0.000332401 -0.0224998 -8.16628e-07 0.000324169 -0.0187499
-7.88348e-07 0.000316133 -0.0149999 -7.6061e-07 0.000308289 -0.0112499 -7.29912e-07 0.000304852 -0.0074999 -6.99425e-07
0.000301452 -0.00374991 -6.69145e-07 0.000298089 6.11905e-08 -6.39071e-07 0.000294761 0.00375005 -6.05789e-07 0.00029147
0.00750005 -5.75627e-07 0.000288215 0.01125 -5.45684e-07 0.000284995 0.015 -5.15955e-07 0.000281809 0.01875
-4.86438e-07 0.000278658 0.0225 -4.53419e-07 0.000277611 0.02625 -4.22348e-07 0.000276569 0.03 -3.91271e-07
0.000275531 0.03375 -3.60188e-07 0.000274496 0.0375 -3.29098e-07 0.000273465 0.04125 -2.91809e-07 0.000272968
0.045 -2.55589e-07 0.000272472 0.04875 -2.1931e-07 0.000271977 0.0525 -1.82971e-07 0.000271482 0.05625
-1.46572e-07 0.000270989 0.0588103 -1.17258e-07 0.000270847 0.0613706 -8.78535e-08 0.000270705 0.0639308 -5.84047e-08
0.000270563 0.0664911 -2.89117e-08 0.000270421 0.0689971 -1.0597e-12 0.000270282 0.0701977 1.38701e-08 0.000270215
0.0713983 2.77515e-08 0.000270149 0.0725988 4.16429e-08 0.000270083 0.0737994 5.55445e-08 0.000270016 0.075
7.04407e-08 0.000269973 0.07875 1.20339e-07 0.000269914 0.0825 1.70337e-07 0.000269856 0.08625 2.20459e-07
0.000269798 0.09 2.70705e-07 0.000269739 0.09375 3.21076e-07 0.000269681 0.0975 3.76557e-07 0.000269674
[...]
POINT_DATA 19665
FIELD attributes 3
age 1 19665 float
0 7.30136e-05 0.000146031 0.000219052 0.000292076 0.000365105 0.00055398 0.000742856 0.000931732 0.00112062 0.00130955
0.00149851 0.00168746 0.00187642 0.0020654 0.00225441 0.00244345 0.00263249 0.00282154 0.0030106 0.0031997
0.00338884 0.00357798 0.00376711 0.00395627 0.00414547 0.00433471 0.00452394 0.00471318 0.00490244 0.00509174
0.00528109 0.00547048 0.00565991 0.00584937 0.00603883 0.00622829 0.0064178 0.00660735 0.00679693 0.00698651
0.0071761 0.00736573 0.00755542 0.00774513 0.0079142 0.00791833 0.00792246 0.00792659 0.00793071 0.00793484
0.00812456 0.00831433 0.00850415 0.00869401 0.00888387 0.00907372 0.00926364 0.00945362 0.00964362 0.00983363
0.0100236 0.0102137 0.0104039 0.010594 0.0107842 0.0109744 0.0111646 0.0113549 0.0115453 0.0117356
0.011926 0.0121164 0.0123069 0.0124975 0.012688 0.0128786 0.0130692 0.0132599 0.0134507 0.0136414
0.0138322 0.014023 0.0142139 0.0144049 0.0145959 0.0147869 0.014978 0.0151691 0.0153603 0.0155516
0.0157428 0.0159341 0.0161256 0.0163171 0.0165086 0.0167 0.0168917 0.0170834 0.0172752 0.0174669
0.0176587 0.0178506 0.0180427 0.0182348 0.0184269 0.018619 0.0188112 0.0190036 0.019196 0.0193885
0.0195809 0.0197735 0.0199663 0.0201591 0.0203519 0.0205448 0.0207376 0.0209304 0.0211234 0.0213165
0.0215097 0.021703 0.0218962 0.0220896 0.0222831 0.0224768 0.0226705 0.0228643 0.0230581 0.0232521
0.0234463 0.0236405 0.0238348 0.0240291 0.0242237 0.0244184 0.0246132 0.024808 0.0250029 0.025198
0.0253934 0.0255888 0.0257842 0.0259797 0.0261755 0.0263716 0.0265676 0.0267637 0.0269599 0.0271564
0.0273532 0.02755 0.0277469 0.0279439 0.0281412 0.0283388 0.0285364 0.0287341 0.0289319 0.0291301
0.0293286 0.0295272 0.0297257 0.0299245 0.0301237 0.0303232 0.0305228 0.0307223 0.0309222 0.0311224
0.0313231 0.0315237 0.0317244 0.0319254 0.0321268 0.0323286 0.0325305 0.0327324 0.0329346 0.0331373
0.0333405 0.0335437 0.033747 0.0339505 0.0341547 0.0343593 0.0345639 0.0347686 0.0349736 0.0351792
0.0353854 0.0355916 0.0357978 0.0360044 0.0362116 0.0364193 0.0366277 0.0368367 0.0370461 0.0372555
0.0374648 0.0376748 0.0378854 0.0380963 0.0383073 0.0385182 0.0387296 0.0389417 0.039154 0.0393663
0.0395786 0.0397913 0.0400044 0.0402178 0.0404311 0.0406442 0.0408577 0.0410715 0.0412853 0.041499
0.0417125 0.0419261 0.0421396 0.042353 0.0425662 0.0427791 0.0429916 0.0432037 0.0434154 0.0436267
0.0438377 0.0440479 0.044257 0.0444657 0.044674 0.0448818 0.0450882 0.0452931 0.0454975 0.0457014
0.045905 0.0461064 0.0463059 0.046505 0.0467039 0.0469023 0.047098 0.0472919 0.0474855 0.0476789
0.0478722 0.048062 0.0482505 0.048439 0.0486274 0.0488158 0.0490006 0.0491848 0.0493692 0.0495536
0.0497383 0.0499195 0.0501009 0.0502826 0.0504645 0.0506465 0.0508265 0.0510067 0.051187 0.0513675
0.0515481 0.0517281 0.0519081 0.0520882 0.0522684 0.0524487 0.052629 0.0528095 0.05299 0.0531705
0.0533512 0.0535319 0.0537126 0.0538934 0.0540742 0.0542552 0.0544363 0.0546174 0.0547985 0.0549797
0.0551036 0.0552274 0.0553513 0.0554752 0.0555965 0.0556546 0.0557127 0.0557708 0.0558289 0.055887
0.0560688 0.0562506 0.0564323 0.0566141 0.0567959 0.056978 0.05716 0.0573421 0.0575242 0.0577062
0.0578886 0.058071 0.0582533 0.0584357 0.058618 0.0588007 0.0589833 0.059166 0.0593486 0.0595313
0.0597142 0.0598972 0.0600801 0.0602631 0.060446 0.0606293 0.0608125 0.0609958 0.061179 0.0613623
0.0615459 0.0617294 0.061913 0.0620965 0.0622801 0.0624639 0.0626478 0.0628316 0.0630155 0.0631993
0.0633835 0.0635676 0.0637517 0.0639358 0.06412 0.0643043 0.0644887 0.0646731 0.0648575 0.0650419
0.0652265 0.0654111 0.0655957 0.0657803 0.0659649 0.0661498 0.0663346 0.0665194 0.0667042 0.0668891
0.0670741 0.0672593 0.0674445 0.0676296 0.0678148 0.068 0.0681853 0.0683707 0.068556 0.0687414
0.0689267 0.0691122 0.0692976 0.0694831 0.0696686 0.0698541 0.0700397 0.0702252 0.0704108 0.0705964
0.070782 0.0709677 0.0711534 0.0713391 0.0715247 0.0717104 0.0718962 0.072082 0.0722677 0.0724535
0.0726392 0.0728251 0.0730109 0.0731967 0.0733825 0.0735684 0.0737542 0.0739401 0.0741259 0.0743118
0.0744977 0.0746836 0.0748694 0.0750553 0.0752412 0.0754271 0.075613 0.0757988 0.0759847 0.0761706
0.0763565 0.0765423 0.0767282 0.076914 0.0770999 0.0772857 0.0774716 0.0776574 0.0778432 0.078029
0.0782148 0.0784006 0.0785864 0.0787722 0.0789579 0.0791437 0.0793295 0.0795152 0.0797009 0.0798867
0.0800724 0.0802581 0.0804438 0.0806296 0.0808153 0.081001 0.0811867 0.0813725 0.0815582 0.0817439
0.0819297 0.0821154 0.0823011 0.0824868 0.0826726 0.0828583 0.0830441 0.0832299 0.0834156 0.0836014
0.0837872 0.083973 0.0841589 0.0843447 0.0845305 0.0847164 0.0849022 0.0850881 0.085274 0.0854599
0.0856458 0.0858318 0.0860177 0.0862036 0.0863896 0.0865756 0.0867616 0.0869476 0.0871336 0.0873196
0.0875056 0.0876917 0.0878777 0.0880638 0.0882498 0.0884359 0.088622 0.0888081 0.0889942 0.0891803
0.0893665 0.0895526 0.0897388 0.0899249 0.0901111 0.0902972 0.0904834 0.0906696 0.0908558 0.091042
0.0912282 0.0914144 0.0916006 0.0917869 0.0919731 0.0921593 0.0923456 0.0925319 0.0927181 0.0929044
0.0930907 0.0932769 0.0934632 0.0936495 0.0938358 0.0940221 0.0942084 0.0943947 0.0945811 0.0947674
0.0949537 0.0951401 0.0953264 0.0955127 0.0956991 0.0958855 0.0960718 0.0962582 0.0964446 0.0966309
0.0968174 0.0970038 0.0971902 0.0973767 0.0975631 0.0977496 0.0979361 0.0981226 0.0983091 0.0984955
0.098682 0.0988686 0.0990551 0.0992416 0.0994281 0.0996147 0.0998012 0.0999878 0.100174 0.100361
0.100547 0.100734 0.100921 0.101107 0.101294 0.10148 0.101667 0.101854 0.102041 0.102227
0.102414 0.102601 0.102788 0.102976 0.103163 0.10335 0.103538 0.103725 0.103913 0.104101
0.104288 0.104477 0.104665 0.104854 0.105042 0.105231 0.10542 0.105609 0.105799 0.105988
0.105994 0.106 0.106006 0.106012 0.106017 0.106201 0.106385 0.10657 0.106754 0.106939
0.107129 0.10732 0.107511 0.107702 0.107893 0.108084 0.108276 0.108468 0.108659 0.108851
0.109043 0.109235 0.109427 0.109619 0.109811 0.110003 0.110195 0.110387 0.11058 0.110772
0.110964 0.111156 0.111349 0.111541 0.111733 0.111925 0.112118 0.11231 0.112502 0.112694
0.112886 0.113078 0.11327 0.113463 0.113655 0.113847 0.114039 0.114231 0.114423 0.114615
0.114807 0.114999 0.115191 0.115382 0.115574 0.115766 0.115958 0.11615 0.116342 0.116533
0.116725 0.116917 0.117109 0.1173 0.117492 0.117684 0.117875 0.118067 0.118259 0.11845
0.118642 0.118833 0.119025 0.119217 0.119408 0.1196 0.119791 0.119983 0.120174 0.120365
0.120557 0.120748 0.12094 0.121131 0.121322 0.121514 0.121705 0.121896 0.122088 0.122279
0.12247 0.122661 0.122853 0.123044 0.123235 0.123426 0.123617 0.123808 0.123999 0.12419
0.124381 0.124572 0.124763 0.124954 0.125145 0.125336 0.125527 0.125717 0.125908 0.126099
0.12629 0.12648 0.126671 0.126862 0.127052 0.127243 0.127433 0.127624 0.127815 0.128005
0.128195 0.128386 0.128576 0.128767 0.128957 0.129147 0.129338 0.129528 0.129718 0.129908
0.130098 0.130289 0.130479 0.130669 0.130859 0.131049 0.131239 0.131429 0.131619 0.131809
0.131998 0.132188 0.132378 0.132568 0.132758 0.132947 0.133137 0.133327 0.133516 0.133706
0.133896 0.134085 0.134275 0.134464 0.134654 0.134843 0.135033 0.135222 0.135411 0.135601
0.13579 0.135979 0.136169 0.136358 0.136547 0.136736 0.136925 0.137114 0.137303 0.137493
0.137681 0.137871 0.13806 0.138249 0.138437 0.138626 0.138815 0.139004 0.139193 0.139382
0.13957 0.139759 0.139948 0.140137 0.140325 0.140514 0.140703 0.140891 0.14108 0.141269
0.141457 0.141646 0.141834 0.142023 0.142211 0.142399 0.142588 0.142776 0.142965 0.143153
0.143342 0.14353 0.143718 0.143907 0.144095 0.144283 0.144472 0.14466 0.144848 0.145037
0.145225 0.145413 0.145601 0.14579 0.145978 0.146166 0.146354 0.146542 0.146731 0.146919
0.147107 0.147295 0.147483 0.147671 0.147859 0.148047 0.148235 0.148424 0.148612 0.1488
0.148988 0.149176 0.149364 0.149552 0.14974 0.149928 0.150116 0.150304 0.150492 0.15068
0.150868 0.151056 0.151244 0.151432 0.15162 0.151996 0.152371 0.152747 0.153123 0.153498
0.154249 0.155 0.15575 0.156501 0.157251 0.158752 0.160252 0.161753 0.163254 0.164754
0.166254 0.167755 0.169255 0.170756 0.172256 0.175256 0.178257 0.181257 0.184257 0.187257
0.193258 0.199258 0.205258 0.211258 0.217258 0.223258 0.229259 0.235259 0.241259 0.247259
0.253259 0.259259 0.265259 0.271259 0.277259 0.283259 0.289259 0.295259 0.30126 0.30726
0.31326 0.31926 0.32526 0.33126 0.33726 0.34326 0.34926 0.35526 0.36126 0.36726
0.37326 0.37926 0.38526 0.39126 0.39726 0.40326 0.403398 0 7.36846e-05 0.000147373
0.000221065 0.000294762 0.000368462 0.000559079 0.000749729 0.000940413 0.00113113 0.00132188 0.00151267 0.00170349
0.00189434 0.00208524 0.00227616 0.00246712 0.00265812 0.00284916 0.00304024 0.00323135 0.00333121 0.00343107
0.00353095 0.00363084 0.00373144 0.00382264 0.00391386 0.00400508 0.00409632 0.00418756 0.00437891 0.00457031
0.00476175 0.00495323 0.00514476 0.00533633 0.00552795 0.00571961 0.00591132 0.00610307 0.00629488 0.00648673
0.00667863 0.00687058 0.00706259 0.00725464 0.00744674 0.0076389 0.00783112 0.00802338 0.0082157 0.00840808
0.00860052 0.00879301 0.00898556 0.00917817 0.00937084 0.00956358 0.00975637 0.00994923 0.0101422 0.0103351
0.0105282 0.0107213 0.0109145 0.0111078 0.0113011 0.0114945 0.011688 0.0118815 0.0120751 0.0122688
0.0124626 0.0126564 0.0128504 0.0130444 0.0132385 0.0134327 0.0136269 0.0138213 0.0140157 0.0142102
0.0144049 0.0145996 0.0147944 0.0149893 0.0151843 0.0153793 0.0155745 0.0157698 0.0159652 0.0161607
0.0163563 0.0165521 0.0167479 0.0169438 0.0171399 0.017336 0.0175323 0.0177287 0.0179253 0.0181219
0.0183187 0.0185156 0.0187127 0.0189098 0.0191072 0.0193046 0.0195022 0.0196999 0.0198978 0.0200959
0.020294 0.0204924 0.0206909 0.0208895 0.0210884 0.0212873 0.0214865 0.0216858 0.0218853 0.022085
0.0222849 0.022485 0.0226852 0.0228856 0.0230863 0.0232871 0.0234882 0.0236894 0.0238909 0.0240926
0.0242945 0.0244966 0.024699 0.0249016 0.0251044 0.0253075 0.0255109 0.0257145 0.0259183 0.0261224
0.0263268 0.0265315 0.0267365 0.0269417 0.0271473 0.0273532 0.0275593 0.0277658 0.0279726 0.0281797
0.0283872 0.028595 0.0288032 0.0290117 0.0292206 0.0294299 0.0296396 0.0298496 0.0300601 0.030271
0.0304823 0.030694 0.0309062 0.0311188 0.0313319 0.0315454 0.0317595 0.031974 0.0321891 0.0324046
0.0326207 0.0328374 0.0330546 0.0332723 0.0334907 0.0337097 0.0339292 0.0341494 0.0343702 0.0345917
0.0348139 0.0350368 0.0352604 0.0354847 0.0357097 0.0359355 0.0361621 0.0363895 0.0366176 0.0368467
0.0370766 0.0373074 0.0375391 0.0377717 0.0380052 0.0382397 0.0384752 0.0387117 0.0389492 0.0391878
0.0394275 0.0396683 0.0399102 0.0401532 0.0403974 0.0406427 0.0408892 0.041137 0.041386 0.0416364
0.041888 0.0421409 0.0423953 0.0426507 0.0429074 0.0431652 0.0434244 0.0436852 0.0439472 0.0442104
0.0444748 0.0447402 0.0450076 0.0452755 0.0455439 0.0458128 0.0460823 0.0463542 0.0464834 0.0466125
0.0467415 0.0468705 0.0469509 0.0471032 0.0472554 0.0474074 0.0475592 0.0477121 0.047983 0.0482521
0.0485195 0.0487848 0.0490534 0.0492008 0.049347 0.0494921 0.0496359 0.0497467 0.0498661 0.0499847
0.0501026 0.0502197 0.050337 0.0505845 0.0508269 0.0510644 0.0512971 0.0515264 0.0515425 0.0515587
0.0515747 0.0515908 0.0516069 0.0518129 0.0520143 0.0522113 0.0524042 0.052591 0.052703 0.0528133
0.0529219 0.0530292 0.0531639 0.0532377 0.0533109 0.0533834 0.0534553 0.053526 0.0537005 0.0538714
0.0540387 0.0542028 0.0543606 0.0544996 0.0546371 0.0547731 0.0549075 0.0551271 0.0551426 0.055158
0.0551735 0.0551889 0.0552066 0.0553373 0.0554675 0.0555971 0.0557262 0.0558541 0.0559971 0.0561402
0.0562835 0.0564269 0.0565702 0.0567137 0.0568574 0.0570014 0.0571458 0.0572906 0.0574357 0.0575812
0.0577271 0.0578733 0.0580199 0.0581668 0.058314 0.0584615 0.0586094 0.0587576 0.0589061 0.0590549
0.0592041 0.0593535 0.0595033 0.0596534 0.0598037 0.0599544 0.0601054 0.0602567 0.0604082 0.0605601
0.0607124 0.0608649 0.0610177 0.0611709 0.0613243 0.0614781 0.0616323 0.0617867 0.0619415 0.0620967
0.0622522 0.062408 0.0625642 0.0627207 0.0628776 0.0630348 0.0631923 0.0633502 0.0635085 0.0636671
0.0638261 0.0639854 0.0641451 0.0643051 0.0644654 0.0646261 0.0647871 0.0649484 0.0651101 0.0652721
0.0654344 0.0655971 0.0657601 0.0659233 0.0660869 0.0662508 0.066415 0.0665795 0.0667443 0.0669093
0.0670747 0.0672403 0.0674062 0.0674146 0.067423 0.0674313 0.0674397 0.067448 0.0676059 0.067764
0.0679224 0.0680809 0.0682398 0.0684072 0.068575 0.0687429 0.0689111 0.0690795 0.0692482 0.069417
0.0695861 0.0697553 0.0699248 0.0700945 0.0702645 0.0704345 0.0706048 0.0707753 0.070946 0.0711168
0.0712878 0.0714589 0.0716303 0.0718018 0.0719734 0.0721452 0.0723172 0.0724893 0.0726615 0.0728339
0.0730064 0.073179 0.0733517 0.0735246 0.0736975 0.0738706 0.0740438 0.0742171 0.0743905 0.0745639
0.0747374 0.074911 0.0750846 0.0752584 0.0754322 0.075606 0.0757799 0.0759539 0.0761278 0.0763018
0.0764758 0.0766498 0.0768238 0.0769979 0.077172 0.077346 0.0775201 0.0776941 0.0778681 0.078042
0.0782159 0.0783898 0.0785637 0.0787375 0.0789113 0.0790851 0.0792588 0.0794325 0.0796061 0.0797796
0.0799532 0.0801266 0.0803001 0.0804735 0.0806469 0.0808203 0.0809937 0.0811671 0.0813405 0.0815138
0.0816872 0.0818607 0.0820341 0.0822076 0.0823812 0.0825548 0.0827285 0.0829023 0.0830761 0.08325
0.0834239 0.083598 0.0837722 0.0839464 0.0841208 0.0842953 0.0844699 0.0846446 0.0848194 0.0849943
0.0851693 0.0853444 0.0855197 0.0856951 0.0858705 0.0860462 0.0862219 0.0863977 0.0865736 0.0867497
0.0869258 0.087102 0.0872784 0.0874549 0.0876314 0.0878081 0.0879849 0.0881618 0.0883388 0.0885159
0.0886931 0.0888703 0.0890477 0.0892252 0.0894027 0.0895804 0.0897582 0.089936 0.090114 0.090292
0.09047 0.0906482 0.0908265 0.0910048 0.0911833 0.0913618 0.0915404 0.0917191 0.0918979 0.0920767
0.0922556 0.0924346 0.0926137 0.0927928 0.0929721 0.0931514 0.0933308 0.0935103 0.0936898 0.0938694
0.0940491 0.0942288 0.0944086 0.0945886 0.0947686 0.0949487 0.0951289 0.0953091 0.0954894 0.0956698
0.0958503 0.0960309 0.0962115 0.0963923 0.0965732 0.0967542 0.0969352 0.0971164 0.0972977 0.0974791
0.0976607 0.0978424 0.0980242 0.0980978 0.0981715 0.0982453 0.098319 0.0983785 0.0984902 0.098602
0.0987137 0.0988256 0.0989374 0.0991194 0.0993015 0.0994835 0.0996655 0.0998475 0.10003 0.100212
0.100394 0.100577 0.100759 0.100941 0.101124 0.101307 0.101491 0.101675 0.101859 0.102044
0.10223 0.102416 0.102603 0.102791 0.10298 0.10317 0.103361 0.103554 0.103748 0.103943
0.10414 0.104339 0.104539 0.104741 0.104945 0.10515 0.105358 0.105567 0.105779 0.105994
0.10621 0.106429 0.10665 0.106874 0.107099 0.107327 0.107558 0.107791 0.108027 0.108266
0.108509 0.108754 0.109002 0.109252 0.109506 0.109762 0.110021 0.110283 0.110549 0.110818
0.11109 0.111365 0.111643 0.111924 0.112208 0.112495 0.112784 0.113077 0.113373 0.113671
0.113972 0.114275 0.114581 0.11489 0.1152 0.115512 0.115827 0.116143 0.116462 0.116781
0.117102 0.117425 0.117748 0.118073 0.118399 0.118726 0.119054 0.119382 0.119711 0.12004
0.120368 0.120697 0.121027 0.121357 0.121686 0.122017 0.122347 0.122677 0.123006 0.123334
0.123663 0.123991 0.124319 0.124588 0.124857 0.125126 0.125395 0.12566 0.125719 0.125778
0.125837 0.125896 0.125954 0.12628 0.126605 0.126929 0.127252 0.127574 0.127895 0.128215
0.128534 0.128852 0.129169 0.129486 0.129802 0.130118 0.130432 0.130746 0.131058 0.131369
0.13168 0.131989 0.132299 0.132607 0.132916 0.133224 0.133531 0.133838 0.134144 0.134448
0.134753 0.135057 0.13536 0.135663 0.135966 0.136268 0.13657 0.136871 0.136944 0.137017
0.137089 0.137162 0.137238 0.137465 0.137691 0.137917 0.138143 0.138368 0.138664 0.138961
0.139256 0.139551 0.139845 0.140138 0.140431 0.140723 0.141014 0.141305 0.141595 0.141884
0.142172 0.142459 0.142746 0.143033 0.143319 0.143605 0.14389 0.144175 0.144458 0.144741
0.145022 0.145304 0.145584 0.145865 0.146145 0.146425 0.146705 0.146983 0.14726 0.147537
0.147813 0.148088 0.148363 0.148637 0.148912 0.149185 0.149459 0.149731 0.150002 0.150273
0.150542 0.150811 0.151079 0.151347 0.151615 0.151882 0.152148 0.152413 0.152678 0.152941
0.153204 0.153466 0.153728 0.153989 0.154249 0.154509 0.154768 0.155027 0.155284 0.155541
0.155797 0.156052 0.156307 0.156561 0.156814 0.157067 0.157319 0.15757 0.157821 0.15807
0.158319 0.158568 0.158815 0.159062 0.159309 0.159555 0.1598 0.160044 0.160086 0.160127
0.160169 0.16021 0.160253 0.160454 0.160655 0.160856 0.161056 0.161256 0.161368 0.16148
0.161591 0.161703 0.161823 0.16195 0.162075 0.162201 0.162326 0.16245 0.162685 0.162919
0.163151 0.163382 0.163611 0.163839 0.164066 0.164292 0.164517 0.164741 0.164963 0.165185
0.165406 0.165626 0.165845 0.166063 0.16628 0.166497 0.166713 0.166928 0.167142 0.167356
0.16757 0.167782 0.167994 0.168206 0.168417 0.168627 0.168837 0.169047 0.169255 0.169464
0.169672 0.16988 0.170087 0.170294 0.1705 0.170707 0.170913 0.171118 0.171528 0.171937
0.172345 0.172749 0.173146 0.173925 0.174704 0.175481 0.176258 0.177033 0.178558 0.18007
0.181582 0.183094 0.184605 0.186115 0.187624 0.189132 0.19064 0.192147 0.19516 0.198173
0.201184 0.204194 0.207202 0.213209 0.219215 0.225221 0.231226 0.23723 0.243232 0.249233
0.255235 0.261237 0.267239 0.27324 0.279241 0.285243 0.291244 0.297246 0.303246 0.309248
0.315249 0.321251 0.327252 0.333253 0.339254 0.345255 0.351256 0.357258 0.363258 0.36926
0.375261 0.381262 0.387263 0.393264 0.399265 0.405266 0.411267 0.417268 0.423269 0.428433
0 7.36606e-05 0.000147326 0.000220996 0.000294671 0.00036835 0.000558912 0.000749507 0.000940134 0.00113079
0.00132149 0.00151221 0.00170298 0.00189377 0.0020846 0.00227546 0.00246636 0.0026573 0.00284827 0.00303928
0.00323033 0.00337689 0.00352347 0.00367008 0.00381671 0.00396679 0.00401066 0.00405454 0.00409841 0.00414229
0.00418617 0.00437745 0.00456877 0.00476014 0.00495155 0.005143 0.00533449 0.00552602 0.00571761 0.00590923
0.00610091 0.00629263 0.00648439 0.00667621 0.00686807 0.00705998 0.00725195 0.00744396 0.00763602 0.00782814
0.00802031 0.00821253 0.00840481 0.00859715 0.00878954 0.00898198 0.00917449 0.00936705 0.00955967 0.00975236
0.0099451 0.0101379 0.0103308 0.0105237 0.0107167 0.0109098 0.0111029 0.0112961 0.0114894 0.0116827
0.0118761 0.0120696 0.0122632 0.0124568 0.0126505 0.0128443 0.0130382 0.0132321 0.0134261 0.0136202
0.0138144 0.0140087 0.0142031 0.0143975 0.014592 0.0147867 0.0149814 0.0151762 0.0153711 0.0155661
0.0157612 0.0159564 0.0161517 0.0163471 0.0165427 0.0167383 0.016934 0.0171298 0.0173258 0.0175219
0.0177181 0.0179144 0.0181108 0.0183073 0.018504 0.0187008 0.0188977 0.0190948 0.019292 0.0194893
0.0196868 0.0198844 0.0200822 0.0202801 0.0204781 0.0206763 0.0208747 0.0210732 0.0212719 0.0214708
0.0216698 0.021869 0.0220683 0.0222679 0.0224676 0.0226675 0.0228676 0.0230679 0.0232684 0.0234691
0.0236699 0.023871 0.0240724 0.0242739 0.0244756 0.0246776 0.0248798 0.0250823 0.025285 0.0254879
0.0256911 0.0258945 0.0260983 0.0263022 0.0265065 0.026711 0.0269158 0.027121 0.0273264 0.0275321
0.0277382 0.0279445 0.0281512 0.0283583 0.0285656 0.0287734 0.0289815 0.0291899 0.0293988 0.0296081
0.0298177 0.0298585 0.0298993 0.0299401 0.029981 0.0300209 0.0301907 0.0303607 0.0305311 0.0307017
0.0308727 0.0310849 0.0312977 0.031511 0.0317247 0.031939 0.0321538 0.0323692 0.0325851 0.0328017
0.0330188 0.0332365 0.0334549 0.0336739 0.0338936 0.034114 0.0343351 0.0345569 0.0347796 0.035003
0.0352272 0.0354522 0.0356782 0.035905 0.0361327 0.0363614 0.0365911 0.0368219 0.0370537 0.0372867
0.0375208 0.037756 0.0379924 0.0382302 0.0384693 0.0387098 0.0389517 0.0391952 0.0394403 0.0396871
0.0399355 0.0401856 0.0404376 0.0406915 0.0409475 0.0412056 0.0414657 0.0417283 0.0419935 0.0422613
0.0425317 0.0428054 0.043082 0.0433619 0.043645 0.0439319 0.0442216 0.0445154 0.0448134 0.0451157
0.0454234 0.0457334 0.0460479 0.0463671 0.0466908 0.0470248 0.047187 0.0473505 0.0475153 0.047681
0.0477585 0.0479606 0.048164 0.0483686 0.0485743 0.0487881 0.0490929 0.0493999 0.0497086 0.0500162
0.0501056 0.0502221 0.0503384 0.0504543 0.0505698 0.0506898 0.0508897 0.0510875 0.051283 0.0514762