# vtk DataFile Version 2.0
tracks
ASCII
DATASET POLYDATA
POINTS 20205 float
-1.001 1e-07 0.0011 -0.99955 9.97116e-08 0.00110001 -0.9981 9.91555e-08 0.00110002 -0.99665 9.83314e-08
0.00110004 -0.9952 9.72394e-08 0.00110006 -0.99375 9.58794e-08 0.00110008 -0.99 9.16427e-08 0.00110015
-0.98625 8.74294e-08 0.00110022 -0.9825 8.32147e-08 0.00110029 -0.97875 7.792e-08 0.00110037 -0.975
7.05097e-08 0.00110048 -0.97125 6.0964e-08 0.00110061 -0.9675 5.1433e-08 0.00110073 -0.96375 4.18984e-08
0.00110086 -0.96 3.19007e-08 0.00110099 -0.95625 2.1001e-08 0.00110113 -0.954916 1.68008e-08 0.00110118
-0.953582 1.2601e-08 0.00110123 -0.952247 8.40055e-09 0.00110128 -0.950913 4.19956e-09 0.00110133 -0.94958
1.69747e-17 0.00110138 -0.947164 -7.60897e-09 0.00110147 -0.944748 -1.52199e-08 0.00110156 -0.942332 -2.33752e-08
0.00110165 -0.939916 -3.21347e-08 0.00110173 -0.9375 -4.14987e-08 0.00110182 -0.93375 -5.69671e-08 0.00110196
-0.93 -7.24474e-08 0.00110209 -0.92625 -8.79339e-08 0.00110223 -0.9225 -1.04519e-07 0.00110236 -0.91875
-1.23233e-07 0.00110249 -0.915 -1.44062e-07 0.00110262 -0.91125 -1.64916e-07 0.00110274 -0.9075 -1.85778e-07
0.00110287 -0.90375 -2.06591e-07 0.001103 -0.9 -2.27298e-07 0.00110312 -0.89625 -2.47873e-07 0.00110323
-0.8925 -2.6499e-07 0.00110334 -0.88875 -2.78617e-07 0.00110345 -0.885 -2.90439e-07 0.00110355 -0.88125
-3.02266e-07 0.00110365 -0.8775 -3.14008e-07 0.00110376 -0.87375 -3.21366e-07 0.00110386 -0.87 -3.24245e-07
0.00110396 -0.86625 -3.24799e-07 0.00110406 -0.8625 -3.25354e-07 0.00110416 -0.85875 -3.2581e-07 0.00110427
-0.855 -3.22246e-07 0.00110437 -0.85125 -3.14557e-07 0.00110447 -0.8475 -3.04721e-07 0.00110457 -0.84375
-2.94881e-07 0.00110468 -0.84 -2.85005e-07 0.00110478 -0.83625 -2.71973e-07 0.00110488 -0.8325 -2.55748e-07
0.00110498 -0.82875 -2.37856e-07 0.00110509 -0.825 -2.19955e-07 0.00110519 -0.82125 -2.01977e-07 0.00110529
-0.8175 -1.80523e-07 0.0011054 -0.81375 -1.55517e-07 0.0011055 -0.81 -1.28649e-07 0.00110561 -0.80625
-1.0177e-07 0.00110571 -0.803415 -8.14159e-08 0.00110579 -0.80058 -5.84518e-08 0.00110588 -0.797745 -3.28493e-08
0.00110596 -0.794911 -4.60633e-09 0.00110605 -0.794463 1.5249e-17 0.00110606 -0.79307 1.43158e-08 0.0011061
-0.791678 2.86341e-08 0.00110615 -0.790285 4.29549e-08 0.00110619 -0.788893 5.72781e-08 0.00110623 -0.7875
7.16038e-08 0.00110628 -0.78375 1.10164e-07 0.00110639 -0.78 1.52882e-07 0.00110651 -0.77625 1.99736e-07
0.00110664 -0.7725 2.48774e-07 0.00110677 -0.76875 2.97836e-07 0.00110689 -0.765 3.46811e-07 0.00110702
-0.76125 3.98343e-07 0.00110716 -0.7575 4.52319e-07 0.0011073 -0.75375 5.07596e-07 0.00110744 -0.75
5.62902e-07 0.00110759 -0.74625 6.1818e-07 0.00110773 -0.7425 6.73694e-07 0.00110789 -0.73875 7.29378e-07
0.00110805 -0.735 7.85167e-07 0.00110821 -0.73125 8.40987e-07 0.00110838 -0.7275 8.96757e-07 0.00110854
-0.72375 9.50623e-07 0.00110872 -0.72 1.00249e-06 0.00110891 -0.71625 1.05331e-06 0.0011091 -0.7125
1.10415e-06 0.00110929 -0.70875 1.15493e-06 0.00110948 -0.705 1.20178e-06 0.00110969 -0.70125 1.24458e-06
0.0011099 -0.6975 1.28522e-06 0.00111013 -0.69375 1.3259e-06 0.00111035 -0.69 1.36601e-06 0.00111058
-0.68625 1.40032e-06 0.00111081 -0.6825 1.42821e-06 0.00111107 -0.67875 1.45268e-06 0.00111133 -0.675
1.47716e-06 0.00111159 -0.67125 1.50098e-06 0.00111185 -0.6675 1.51819e-06 0.00111212 -0.66375 1.52808e-06
0.00111241 -0.66 1.53403e-06 0.00111271 -0.65625 1.53998e-06 0.00111301 -0.6525 1.54584e-06 0.00111331
-0.64875 1.54692e-06 0.00111362 -0.645 1.5431e-06 0.00111395 -0.64125 1.53661e-06 0.00111429 -0.6375
1.53012e-06 0.00111463 -0.63375 1.52287e-06 0.00111497 -0.63 1.51408e-06 0.00111532 -0.62625 1.50296e-06
0.00111569 -0.6225 1.49056e-06 0.00111607 -0.61875 1.47814e-06 0.00111645 -0.615 1.46495e-06 0.00111683
-0.61125 1.45166e-06 0.00111723 -0.6075 1.43745e-06 0.00111765 -0.60375 1.42274e-06 0.00111808 -0.6
1.40801e-06 0.00111851 -0.59625 1.3925e-06 0.00111894 -0.5925 1.37778e-06 0.00111936 -0.58875 1.36305e-06
0.00111979 -0.585 1.34897e-06 0.00112024 -0.58125 1.33606e-06 0.0011207 -0.5775 1.32429e-06 0.00112119
-0.57375 1.31259e-06 0.00112167 -0.57 1.30088e-06 0.00112216 -0.56625 1.29056e-06 0.00112266 -0.5625
1.28277e-06 0.00112318 -0.55875 1.27748e-06 0.00112373 -0.555 1.27225e-06 0.00112427 -0.55125 1.26702e-06
0.00112482 -0.5475 1.26362e-06 0.00112538 -0.54375 1.26345e-06 0.00112596 -0.54 1.26571e-06 0.00112657
-0.53625 1.26886e-06 0.00112717 -0.5325 1.27201e-06 0.00112778 -0.52875 1.27754e-06 0.0011284 -0.525
1.28721e-06 0.00112905 -0.52125 1.30105e-06 0.00112972 -0.5175 1.31498e-06 0.00113039 -0.51375 1.32892e-06
0.00113106 -0.51 1.34519e-06 0.00113174 -0.50625 1.36546e-06 0.00113245 -0.5025 1.38977e-06 0.00113319
-0.49875 1.41419e-06 0.00113392 -0.495 1.43864e-06 0.00113466 -0.49125 1.46467e-06 0.00113541 -0.4875
1.49338e-06 0.00113618 -0.48375 1.52352e-06 0.00113697 -0.48 1.55506e-06 0.00113777 -0.47625 1.58666e-06
0.00113856 -0.4725 1.61956e-06 0.00113937 -0.46875 1.65462e-06 0.0011402 -0.465 1.69034e-06 0.00114105
-0.46125 1.72777e-06 0.0011419 -0.4575 1.76527e-06 0.00114275 -0.45375 1.80457e-06 0.00114361 -0.45
1.84678e-06 0.00114449 -0.44625 1.89008e-06 0.00114539 -0.4425 1.93551e-06 0.0011463 -0.43875 1.98102e-06
0.0011472 -0.435 2.02664e-06 0.00114811 -0.43125 2.07239e-06 0.00114904 -0.4275 2.11839e-06 0.00114998
-0.42375 2.16459e-06 0.00115093 -0.42 2.21089e-06 0.00115188 -0.41625 2.25534e-06 0.00115283 -0.4125
2.29677e-06 0.00115379 -0.40875 2.33538e-06 0.00115477 -0.405 2.37418e-06 0.00115574 -0.40125 2.41307e-06
0.00115672 -0.3975 2.45075e-06 0.00115769 -0.39375 2.48648e-06 0.00115867 -0.39 2.51682e-06 0.00115964
-0.38625 2.55107e-06 0.00116062 -0.3825 2.58541e-06 0.0011616 -0.37875 2.61956e-06 0.00116257 -0.375
2.65337e-06 0.00116353 -0.37125 2.68272e-06 0.00116448 -0.3675 2.71677e-06 0.00116543 -0.36375 2.7509e-06
0.00116638 -0.36 2.7846e-06 0.00116732 -0.35625 2.8176e-06 0.00116822 -0.3525 2.8503e-06 0.0011691
-0.34875 2.88327e-06 0.00116999 -0.345 2.91632e-06 0.00117087 -0.34125 2.94805e-06 0.00117171 -0.3375
2.97776e-06 0.0011725 -0.33375 2.99954e-06 0.00117324 -0.33 3.028e-06 0.00117397 -0.32625 3.05654e-06
0.00117471 -0.3225 3.08537e-06 0.00117538 -0.31875 3.11459e-06 0.00117595 -0.315 3.13722e-06 0.00117643
-0.31125 3.16781e-06 0.00117691 -0.3075 3.19848e-06 0.00117738 -0.30375 3.23305e-06 0.00117776 -0.3
3.27329e-06 0.00117799 -0.29625 3.3109e-06 0.00117808 -0.2925 3.36189e-06 0.00117795 -0.28875 3.41687e-06
0.00117761 -0.285 3.47466e-06 0.00117712 -0.28125 3.5326e-06 0.00117664 -0.2775 3.59166e-06 0.00117616
-0.27375 3.65113e-06 0.00117536 -0.27 3.71065e-06 0.00117425 -0.26625 3.77024e-06 0.00117293 -0.2625
3.82997e-06 0.00117161 -0.25875 3.89106e-06 0.00117029 -0.255 3.94836e-06 0.00116853 -0.25125 4.00142e-06
0.00116631 -0.2475 4.05166e-06 0.00116379 -0.24375 4.10201e-06 0.00116127 -0.24 4.13706e-06 0.00115877
-0.23625 4.18133e-06 0.00115565 -0.2325 4.2175e-06 0.00115193 -0.22875 4.24855e-06 0.00114783 -0.225
4.27966e-06 0.00114375 -0.22125 4.31261e-06 0.00113968 -0.2175 4.35107e-06 0.00113479 -0.21375 4.39473e-06
0.00112907 -0.21 4.44146e-06 0.0011229 -0.20625 4.48823e-06 0.00111676 -0.2025 4.5371e-06 0.00111066
-0.19875 4.60157e-06 0.00110342 -0.195 4.68133e-06 0.00109503 -0.19125 4.7688e-06 0.00108611 -0.1875
4.85612e-06 0.00107727 -0.18375 4.91771e-06 0.00106851 -0.18 5.01495e-06 0.00105824 -0.17625 5.11963e-06
0.00104647 -0.1725 5.22703e-06 0.00103419 -0.16875 5.33397e-06 0.00102208 -0.165 5.40962e-06 0.00101013
-0.16125 5.51457e-06 0.000996351 -0.1575 5.61508e-06 0.000980788 -0.15375 5.71397e-06 0.000964968 -0.15
5.81225e-06 0.000949434 -0.14625 5.87366e-06 0.000934174 -0.1425 5.96439e-06 0.000916854 -0.13875 6.04547e-06
0.000897531 -0.135 6.12524e-06 0.000878449 -0.13125 6.20454e-06 0.000859812 -0.1275 6.28622e-06 0.000841599
-0.12375 6.3595e-06 0.000821297 -0.12 6.42565e-06 0.000799295 -0.11625 6.49152e-06 0.000777924 -0.1125
6.55714e-06 0.000757163 -0.10875 6.62523e-06 0.000736985 -0.105 6.69073e-06 0.000714781 -0.10125 6.75496e-06
0.000691586 -0.0975 6.81897e-06 0.000669174 -0.0937499 6.8828e-06 0.000647517 -0.0899999 6.89867e-06 0.000626576
-0.0862499 6.9592e-06 0.000604008 -0.0824999 7.01808e-06 0.000581314 -0.0787499 7.07695e-06 0.000559485 -0.0749999
7.13582e-06 0.000538487 -0.0712499 7.14515e-06 0.000518271 -0.0674999 7.19733e-06 0.000497878 -0.0637499 7.24864e-06
0.000478115 -0.0599999 7.30022e-06 0.00045913 -0.0562499 7.35209e-06 0.000440892 -0.0524999 7.40526e-06 0.000423358
-0.0487498 7.45605e-06 0.000408099 -0.0449998 7.50712e-06 0.000393377 -0.0412498 7.5585e-06 0.000379173 -0.0374998
7.61017e-06 0.00036547 -0.0337498 7.61232e-06 0.000352242 -0.0299998 7.66117e-06 0.000343107 -0.0262498 7.71034e-06
0.000334201 -0.0224998 7.75982e-06 0.000325519 -0.0187499 7.80962e-06 0.000317055 -0.0149999 7.8108e-06 0.000308805
-0.0112499 7.84698e-06 0.000304679 -0.0074999 7.88352e-06 0.000300605 -0.00374991 7.92043e-06 0.000296585 6.11914e-08
7.95769e-06 0.000292616 0.00375005 7.99373e-06 0.000288705 0.00750005 8.02621e-06 0.000284855 0.01125 8.05899e-06
0.000281056 0.015 8.09207e-06 0.000277306 0.01875 8.12546e-06 0.000273604 0.0225 8.14587e-06 0.000272012
0.02625 8.16316e-06 0.000270433 0.03 8.18065e-06 0.000268863 0.03375 8.19836e-06 0.000267302 0.0375
8.21627e-06 0.00026575 0.04125 8.22673e-06 0.000264779 0.045 8.2336e-06 0.000263814 0.04875 8.2406e-06
0.000262853 0.0525 8.24773e-06 0.000261895 0.05625 8.25499e-06 0.000260941 0.06 8.22185e-06 0.000260259
0.06375 8.22016e-06 0.00025958 0.0675 8.21855e-06 0.000258903 0.07125 8.21703e-06 0.000258228 0.075
8.21558e-06 0.000257555 0.07875 8.20953e-06 0.00025699 0.0825 8.20075e-06 0.000256428 0.08625 8.19203e-06
0.000255867 0.09 8.18335e-06 0.000255308 0.09375 8.17473e-06 0.000254749 0.0975 8.16322e-06 0.000254214
0.10125 8.14976e-06 0.000253681 0.105 8.13634e-06 0.000253149 0.10875 8.12296e-06 0.000252618 0.1125
8.10962e-06 0.000252088 0.11625 8.06722e-06 0.000251551 0.12 8.05211e-06 0.000251017 0.12375 8.03704e-06
[...]
POINT_DATA 20205
FIELD attributes 3
age 1 20205 float
0 7.32479e-05 0.0001465 0.000219757 0.000293018 0.000366284 0.000555776 0.000745269 0.000934761 0.00112427 0.00131383
0.00150342 0.00169301 0.0018826 0.00207221 0.00226186 0.00232935 0.00239684 0.00246433 0.00253182 0.00259928
0.00272149 0.0028437 0.00296592 0.00308816 0.00321042 0.00340021 0.00359 0.0037798 0.00396961 0.00415947
0.00434938 0.00453928 0.00472918 0.0049191 0.00510907 0.00529908 0.00548914 0.00567924 0.00586936 0.00605948
0.0062496 0.00643976 0.00662997 0.0068202 0.00701043 0.00720066 0.00739094 0.00758126 0.00777161 0.00796195
0.0081523 0.00834269 0.00853314 0.00872361 0.00891407 0.00910454 0.00929506 0.00948563 0.00967623 0.00986683
0.0100109 0.010155 0.0102992 0.0104434 0.0104661 0.010537 0.0106078 0.0106786 0.0107495 0.0108203
0.011011 0.0112018 0.0113927 0.0115836 0.0117745 0.0119654 0.0121563 0.0123474 0.0125384 0.0127295
0.0129206 0.0131117 0.0133029 0.0134942 0.0136854 0.0138767 0.014068 0.0142594 0.0144509 0.0146424
0.0148338 0.0150254 0.015217 0.0154087 0.0156004 0.0157921 0.0159839 0.0161758 0.0163678 0.0165598
0.0167517 0.0169438 0.017136 0.0173282 0.0175204 0.0177127 0.017905 0.0180975 0.0182901 0.0184826
0.0186752 0.0188679 0.0190607 0.0192536 0.0194464 0.0196393 0.0198324 0.0200255 0.0202188 0.0204121
0.0206053 0.0207986 0.0209918 0.0211852 0.0213787 0.0215724 0.0217661 0.0219597 0.0221535 0.0223475
0.0225416 0.0227357 0.0229298 0.023124 0.0233185 0.0235131 0.0237077 0.0239023 0.024097 0.024292
0.0244871 0.0246823 0.0248774 0.0250727 0.0252682 0.025464 0.0256597 0.0258555 0.0260514 0.0262475
0.0264439 0.0266403 0.0268367 0.0270333 0.0272301 0.0274273 0.0276244 0.0278215 0.0280189 0.0282165
0.0284144 0.0286123 0.0288103 0.0290084 0.0292069 0.0294057 0.0296046 0.0298034 0.0300025 0.0302019
0.0304017 0.0306015 0.0308014 0.0310015 0.0312019 0.0314028 0.0316037 0.0318046 0.0320058 0.0322075
0.0324095 0.0326116 0.0328137 0.0330162 0.0332191 0.0334224 0.0336259 0.0338293 0.034033 0.0342373
0.0344421 0.034647 0.0348518 0.035057 0.0352628 0.0354691 0.0356755 0.0358818 0.0360886 0.0362959
0.0365038 0.0367124 0.0369216 0.0371312 0.0373407 0.0375503 0.0377605 0.0379713 0.0381825 0.0383937
0.0386048 0.0388166 0.0390289 0.0392415 0.0394542 0.0396667 0.0398798 0.0400933 0.0403071 0.0405209
0.0407345 0.0409484 0.0411627 0.0413772 0.0415915 0.0418055 0.0420198 0.042234 0.0424482 0.0426622
0.0428759 0.0430893 0.0433024 0.0435152 0.0437276 0.0439397 0.044151 0.0443615 0.0445715 0.0447811
0.0449902 0.045198 0.0454044 0.0456102 0.0458156 0.0460206 0.0462235 0.0464245 0.0466252 0.0468255
0.0470254 0.0472227 0.0474181 0.0476133 0.0478082 0.0480028 0.0481942 0.0483842 0.0485741 0.048764
0.0489537 0.0491399 0.0493255 0.0495111 0.0496969 0.0498827 0.0500652 0.0502479 0.0504307 0.0506137
0.0507969 0.050978 0.0511593 0.0513407 0.0515222 0.051704 0.0518849 0.0520659 0.052247 0.0524282
0.0526095 0.0527909 0.0529723 0.0531538 0.0533354 0.053517 0.0536987 0.0538804 0.0540621 0.0542439
0.054426 0.054608 0.0547901 0.0549722 0.0551543 0.0553367 0.0555191 0.0557015 0.0558839 0.0560664
0.0562491 0.0564318 0.0566146 0.0567973 0.05698 0.0571631 0.0573461 0.0575291 0.0577121 0.0578951
0.0580784 0.0582617 0.058445 0.0586283 0.0588116 0.0589951 0.0591787 0.0593622 0.0595458 0.0597293
0.0599131 0.0600969 0.0602807 0.0604645 0.0606484 0.0608324 0.0610165 0.0612005 0.0613846 0.0615686
0.0617529 0.0619372 0.0621214 0.0623057 0.06249 0.0626745 0.062859 0.0630435 0.063228 0.0634125
0.0635972 0.0637819 0.0639666 0.0641513 0.064336 0.0645209 0.0647058 0.0648907 0.0650756 0.0652605
0.0654455 0.0656306 0.0658156 0.0660007 0.0661857 0.0663709 0.0665561 0.0667413 0.0669265 0.0671117
0.0672971 0.0674825 0.067668 0.0678534 0.0680388 0.0682243 0.0684098 0.0685954 0.0687809 0.0689665
0.069152 0.0693377 0.0695233 0.069709 0.0698946 0.0700803 0.0702661 0.0704518 0.0706375 0.0708233
0.071009 0.0711949 0.0713807 0.0715665 0.0717523 0.0719382 0.0721241 0.0723099 0.0724958 0.0726817
0.0728676 0.0730536 0.0732395 0.0734254 0.0736114 0.0737973 0.0739833 0.0741693 0.0743553 0.0745412
0.0747272 0.0749132 0.0750992 0.0752852 0.0754712 0.0756572 0.0758432 0.0760292 0.0762152 0.0764012
0.0765872 0.0767732 0.0769592 0.0771452 0.0773311 0.0775171 0.0777031 0.077889 0.078075 0.078261
0.0784469 0.0786328 0.0788188 0.0790047 0.0791906 0.0793765 0.0795624 0.0797483 0.0799342 0.0801201
0.080306 0.0804919 0.0806778 0.0808636 0.0810495 0.0812354 0.0814213 0.0816071 0.081793 0.0819789
0.0821648 0.0823506 0.0825365 0.0827224 0.0829082 0.0830941 0.08328 0.0834659 0.0836518 0.0838377
0.0840236 0.0842095 0.0843954 0.0845813 0.0847672 0.0849531 0.0851391 0.085325 0.0855109 0.0856969
0.0856978 0.0856988 0.0856998 0.0857007 0.0857017 0.0858867 0.0860717 0.0862567 0.0864417 0.0866266
0.0868126 0.0869986 0.0871846 0.0873706 0.0875565 0.0877425 0.0879285 0.0881145 0.0883005 0.0884865
0.0886725 0.0888584 0.0890444 0.0892304 0.0894164 0.0896024 0.0897884 0.0899744 0.0901604 0.0903464
0.0905324 0.0907184 0.0909044 0.0910903 0.0912763 0.0914623 0.0916483 0.0918343 0.0920203 0.0922062
0.0923922 0.0925782 0.0927642 0.0929502 0.0931361 0.0933221 0.0935081 0.0936941 0.09388 0.094066
0.094252 0.094438 0.094624 0.0948099 0.0949959 0.0951819 0.0953679 0.0955539 0.0957398 0.0959258
0.0961118 0.0962978 0.0964838 0.0966698 0.0968558 0.0970418 0.0972279 0.0974139 0.0976 0.097786
0.0979721 0.0981581 0.0983441 0.0985301 0.0987162 0.0989022 0.0990881 0.099274 0.0994599 0.0996458
0.0998317 0.100017 0.100203 0.100389 0.100574 0.10076 0.100945 0.101131 0.101316 0.101502
0.101687 0.101872 0.102058 0.102243 0.102429 0.102614 0.1028 0.102985 0.103171 0.103357
0.103542 0.103729 0.103915 0.104101 0.104287 0.104473 0.10466 0.104847 0.105033 0.10522
0.105407 0.105594 0.105781 0.105969 0.106156 0.106344 0.106532 0.10672 0.106908 0.107096
0.107284 0.107472 0.107661 0.10785 0.108038 0.108227 0.108416 0.108605 0.108794 0.108983
0.109172 0.109362 0.109551 0.10974 0.10993 0.110119 0.110309 0.110498 0.110688 0.110878
0.111067 0.111257 0.111447 0.111637 0.111826 0.112016 0.112206 0.112396 0.112585 0.112775
0.112965 0.113155 0.113345 0.113534 0.113724 0.113914 0.114104 0.114294 0.114484 0.114674
0.114863 0.115053 0.115243 0.115433 0.115623 0.115812 0.116002 0.116192 0.116382 0.116572
0.116761 0.116951 0.117141 0.117331 0.117521 0.11771 0.1179 0.11809 0.11828 0.118469
0.118659 0.118849 0.119038 0.119228 0.119418 0.119607 0.119797 0.119987 0.120177 0.120366
0.120556 0.120746 0.120935 0.121125 0.121315 0.121504 0.121694 0.121884 0.122073 0.122263
0.122452 0.122642 0.122832 0.123021 0.123211 0.123401 0.12359 0.12378 0.12397 0.124159
0.124349 0.124539 0.124728 0.124918 0.125107 0.125297 0.125487 0.125676 0.125866 0.126056
0.126245 0.126435 0.126624 0.126814 0.127004 0.127193 0.127383 0.127572 0.127762 0.127951
0.128141 0.12833 0.12852 0.128709 0.128899 0.129088 0.129278 0.129467 0.129657 0.129846
0.130036 0.130225 0.130414 0.130604 0.130793 0.130982 0.131172 0.131361 0.13155 0.13174
0.131929 0.132118 0.132308 0.132497 0.132686 0.132875 0.133065 0.133254 0.133443 0.133632
0.133821 0.13401 0.1342 0.134389 0.134578 0.134767 0.134956 0.135145 0.135334 0.135523
0.135712 0.135901 0.13609 0.136279 0.136468 0.136657 0.136846 0.137035 0.137224 0.137413
0.137601 0.13779 0.137979 0.138168 0.138357 0.138546 0.138734 0.138923 0.139112 0.139301
0.139489 0.139678 0.139867 0.140055 0.140244 0.140433 0.140622 0.14081 0.140999 0.141187
0.141376 0.141565 0.141753 0.141942 0.14213 0.142319 0.142508 0.142696 0.142885 0.143073
0.143262 0.14345 0.143639 0.143828 0.144016 0.144205 0.144393 0.144582 0.14477 0.144959
0.145147 0.145335 0.145524 0.145712 0.145901 0.146089 0.146278 0.146466 0.146654 0.146843
0.147031 0.147219 0.147408 0.147596 0.147785 0.147973 0.148161 0.14835 0.148538 0.148726
0.148914 0.149103 0.149291 0.149479 0.149668 0.149856 0.150044 0.150232 0.150421 0.150609
0.150797 0.150985 0.151174 0.151362 0.15155 0.151927 0.152303 0.152679 0.153056 0.153432
0.154184 0.154935 0.155686 0.156438 0.157189 0.15869 0.160191 0.161691 0.163192 0.164693
0.166193 0.167694 0.169194 0.170695 0.172195 0.175196 0.178197 0.181198 0.184199 0.1872
0.193201 0.199202 0.205203 0.211204 0.217205 0.223205 0.229205 0.235206 0.241206 0.247207
0.253207 0.259207 0.265208 0.271208 0.277209 0.283209 0.289209 0.29521 0.30121 0.30721
0.313211 0.319211 0.325212 0.331212 0.337212 0.343213 0.349213 0.355213 0.361214 0.367214
0.373215 0.379215 0.385215 0.391216 0.397216 0.403217 0.409229 0.415253 0.42129 0.427339
0 7.42414e-05 0.000148488 0.00022274 0.000296997 0.000371259 0.000563332 0.00075545 0.00094761 0.00113981
0.00120276 0.00122863 0.00125449 0.00128035 0.00130621 0.00133208 0.00152437 0.0017167 0.00190908 0.00210151
0.00229398 0.00248649 0.00267906 0.00287167 0.00306433 0.00325703 0.00344978 0.00364259 0.00383544 0.00402834
0.00422129 0.0044143 0.00460735 0.00480046 0.00499362 0.00518683 0.0053801 0.00557342 0.00576679 0.00596022
0.0061537 0.00634724 0.00654085 0.00673452 0.00692824 0.00712203 0.00731588 0.0075098 0.0077038 0.00789786
0.008092 0.00828621 0.0084805 0.00867488 0.00886933 0.00906387 0.00925849 0.0094532 0.00964799 0.00984287
0.0100378 0.0102329 0.010428 0.0106232 0.0108185 0.0110139 0.0112094 0.011405 0.0116006 0.0117964
0.0119922 0.0121881 0.0123841 0.0125802 0.0127763 0.0129726 0.0130427 0.0131128 0.0131829 0.0132531
0.0133251 0.013451 0.013577 0.013703 0.0138291 0.0139552 0.014152 0.0143488 0.0145458 0.0147428
0.01494 0.0151372 0.0153345 0.0155319 0.0157294 0.0159271 0.0161248 0.0163226 0.0165205 0.0167186
0.0169167 0.017115 0.0173133 0.0175118 0.0177104 0.0179091 0.0181079 0.0183069 0.018506 0.0187052
0.0189045 0.019104 0.0193036 0.0195033 0.0197032 0.0199033 0.0201034 0.0203038 0.0205042 0.0207049
0.0209057 0.0211066 0.0213077 0.021509 0.0217105 0.0219121 0.0221139 0.0223159 0.0225181 0.0227205
0.022923 0.0231258 0.0233288 0.0235319 0.0237353 0.0239389 0.0241427 0.0243467 0.024551 0.0247555
0.0249602 0.0251652 0.0253704 0.0255759 0.0257817 0.0259877 0.026194 0.0264005 0.0266074 0.0268145
0.0270219 0.0272296 0.0274377 0.027646 0.0278547 0.0280637 0.0282731 0.0284827 0.0286928 0.0289032
0.029114 0.0293251 0.0295367 0.0297487 0.029961 0.0301738 0.030387 0.0306006 0.0308147 0.0310292
0.0312442 0.0314597 0.0316756 0.0318921 0.0321091 0.0323266 0.0325446 0.0327633 0.0329824 0.0332022
0.0334226 0.0336435 0.0338651 0.0340873 0.0343102 0.0345338 0.034758 0.034983 0.0352087 0.0354352
0.0356624 0.0358904 0.0361191 0.0363488 0.0365792 0.0368106 0.0370427 0.0372759 0.03751 0.0377451
0.0379811 0.0382181 0.0384561 0.0386952 0.0389354 0.0391767 0.0394192 0.0396628 0.0399077 0.0401538
0.0404011 0.0406496 0.0408994 0.0411505 0.0414029 0.0416568 0.0419121 0.0421689 0.0424271 0.0426868
0.0429481 0.0432107 0.0434747 0.04374 0.044007 0.0442758 0.044546 0.0448176 0.0450906 0.045365
0.0456415 0.0459188 0.0461968 0.0464757 0.0467552 0.0470376 0.0472177 0.0473979 0.047578 0.0477579
0.0478474 0.0479682 0.048089 0.0482097 0.0483302 0.0484515 0.0487342 0.0490151 0.0492943 0.0495716
0.0498527 0.0500304 0.0502064 0.0503808 0.0505537 0.0506801 0.0507846 0.0508885 0.0509919 0.0510948
0.0511978 0.0514574 0.0517116 0.0519606 0.0522047 0.0524453 0.0524699 0.0524944 0.0525189 0.0525433
0.0525678 0.0527754 0.0529785 0.0531774 0.0533722 0.0535611 0.0536795 0.0537961 0.053911 0.0540244
0.054167 0.0542434 0.0543191 0.0543941 0.0544685 0.0545418 0.0547247 0.054904 0.0550797 0.0552521
0.0554176 0.0555553 0.0556916 0.0558265 0.05596 0.0562227 0.0562239 0.056225 0.0562262 0.0562274
0.0562286 0.0563817 0.0565342 0.0566859 0.056837 0.0569863 0.0571365 0.0572869 0.0574375 0.0575883
0.0577389 0.0578897 0.0580408 0.0581922 0.058344 0.0584962 0.0586487 0.0588016 0.0589549 0.0591086
0.0592626 0.059417 0.0595717 0.0597267 0.059882 0.0600377 0.0601937 0.06035 0.0605066 0.0606635
0.0608208 0.0609782 0.061136 0.061294 0.0614523 0.0616109 0.0617698 0.0619289 0.0620884 0.0622481
0.0624081 0.0625683 0.0627288 0.0628895 0.0630506 0.0632119 0.063334 0.0634563 0.0635788 0.0637014
0.0638381 0.0638751 0.0639121 0.063949 0.063986 0.0640231 0.0641861 0.0643493 0.0645128 0.0646766
0.0648407 0.0650051 0.0651698 0.0653348 0.0655 0.0656655 0.0658313 0.0659974 0.0661637 0.0663303
0.0664972 0.0666644 0.0668318 0.0669996 0.0671676 0.0673359 0.0675045 0.0676733 0.0678423 0.0680116
0.0681812 0.068351 0.068521 0.0686914 0.0688619 0.0690327 0.0692037 0.0693749 0.0695463 0.069718
0.0698899 0.070062 0.0702343 0.0704068 0.0705795 0.0707525 0.0709256 0.0710989 0.0712724 0.0714461
0.07162 0.071794 0.0719682 0.0721425 0.0723169 0.0724916 0.0726664 0.0728413 0.0730164 0.0731916
0.073367 0.0735424 0.073718 0.0738936 0.0740694 0.0742452 0.0744212 0.0745973 0.0747734 0.0749497
0.075126 0.0753023 0.0754787 0.0756551 0.0758316 0.0760082 0.0761848 0.0763615 0.0765382 0.0767149
0.0768916 0.0770684 0.0772452 0.0774219 0.0775987 0.0777754 0.0779522 0.078129 0.0783058 0.0784825
0.0786592 0.0788359 0.0790126 0.0791892 0.0793657 0.0795423 0.0797188 0.0798952 0.0800717 0.080248
0.0804243 0.0806006 0.0807767 0.0809528 0.0811289 0.0813048 0.0814808 0.0816566 0.0818324 0.0820082
0.0821838 0.0823594 0.0825349 0.0827104 0.0828858 0.0830611 0.0832364 0.0834117 0.0835871 0.0837623
0.0839376 0.0841128 0.084288 0.0844632 0.0846384 0.0848136 0.0849888 0.0851641 0.0853393 0.0855146
0.0856899 0.0858652 0.0860405 0.0862157 0.086391 0.0865663 0.0867416 0.086917 0.0870924 0.0872677
0.0874431 0.0876184 0.0877938 0.0879691 0.0881444 0.0883196 0.0884949 0.0886702 0.0888455 0.0890207
0.0891959 0.0893711 0.0895462 0.0897212 0.0898962 0.0900712 0.0902462 0.0904211 0.0905959 0.0907708
0.0909455 0.0911203 0.0912949 0.0914694 0.0916439 0.0918184 0.0919927 0.0921671 0.0923413 0.0925155
0.0926896 0.0928637 0.0930376 0.0932115 0.0933853 0.093559 0.0937327 0.0939064 0.0940799 0.0942534
0.0944269 0.0946003 0.0947736 0.0949469 0.0951201 0.0952933 0.0954664 0.0956395 0.0958126 0.0959856
0.0961586 0.0963315 0.0965045 0.0966775 0.0968504 0.0970234 0.0971963 0.0973693 0.0975423 0.0977153
0.0978884 0.0980615 0.0982346 0.0984079 0.0985813 0.0987546 0.0989281 0.0991016 0.0992751 0.0994486
0.0996222 0.0997963 0.0999702 0.100144 0.100317 0.10049 0.100662 0.100834 0.101005 0.101175
0.101344 0.101513 0.101681 0.101848 0.102014 0.10218 0.102346 0.102511 0.102676 0.102841
0.103006 0.10317 0.103336 0.103501 0.103667 0.103834 0.104001 0.104169 0.104338 0.104508
0.104679 0.104851 0.105025 0.1052 0.105376 0.105554 0.105733 0.105914 0.106096 0.10628
0.106465 0.106652 0.106841 0.107032 0.107224 0.107417 0.107612 0.107809 0.108007 0.108206
0.108407 0.108609 0.108813 0.109019 0.109225 0.109433 0.109642 0.109852 0.110063 0.110276
0.110489 0.110704 0.110919 0.111135 0.111353 0.111571 0.11179 0.112009 0.112229 0.11245
0.112672 0.112894 0.113117 0.11334 0.113564 0.113788 0.114012 0.114237 0.114463 0.114688
0.114914 0.115141 0.115367 0.115593 0.11582 0.116047 0.116274 0.116501 0.116729 0.116956
0.117183 0.11741 0.117638 0.117865 0.118092 0.118319 0.118546 0.118772 0.118999 0.119225
0.119452 0.119677 0.119903 0.120128 0.120354 0.120578 0.120803 0.121027 0.121251 0.121474
0.121697 0.121837 0.121977 0.122117 0.122257 0.122427 0.122503 0.122579 0.122655 0.122731
0.122806 0.123027 0.123247 0.123467 0.123686 0.123905 0.124124 0.124342 0.12456 0.124777
0.124994 0.12521 0.125426 0.125641 0.125856 0.126071 0.126285 0.126499 0.126713 0.126926
0.127139 0.127351 0.127563 0.127775 0.127986 0.128197 0.128407 0.128618 0.128827 0.129037
0.129246 0.129455 0.129664 0.129872 0.13008 0.130287 0.130494 0.130701 0.130908 0.131114
0.131321 0.131526 0.131732 0.131937 0.132142 0.132347 0.132551 0.132756 0.13296 0.133163
0.133367 0.13357 0.133773 0.133976 0.134179 0.134381 0.134584 0.134786 0.134988 0.135189
0.135391 0.135592 0.135793 0.135994 0.136195 0.136395 0.136596 0.136796 0.136996 0.137196
0.137396 0.137596 0.137795 0.137995 0.138194 0.138393 0.138592 0.138791 0.13899 0.139188
0.139387 0.139585 0.139783 0.139981 0.140179 0.140377 0.140575 0.140772 0.14097 0.141167
0.141364 0.141561 0.141759 0.141955 0.142152 0.142349 0.142546 0.142742 0.142939 0.143135
0.143331 0.143528 0.143724 0.14392 0.144116 0.144312 0.144507 0.144703 0.144899 0.145094
0.14529 0.145485 0.145681 0.145876 0.146071 0.146266 0.146461 0.146656 0.146851 0.147046
0.147241 0.147435 0.14763 0.147825 0.148019 0.148214 0.148408 0.148602 0.148797 0.148991
0.149185 0.149379 0.149573 0.149767 0.149961 0.150155 0.150349 0.150543 0.150737 0.15093
0.151124 0.151318 0.151511 0.151705 0.151899 0.152092 0.152285 0.152479 0.152672 0.152866
0.153059 0.153252 0.153445 0.153638 0.153832 0.154025 0.154218 0.154411 0.154604 0.154797
0.15499 0.155183 0.155376 0.155568 0.155761 0.155954 0.15634 0.156725 0.157111 0.157496
0.157881 0.158652 0.159421 0.160191 0.16096 0.161728 0.163265 0.164801 0.166337 0.167871
0.169404 0.170936 0.172467 0.173999 0.175529 0.177059 0.178288 0.179517 0.180745 0.181973
0.183201 0.18503 0.186857 0.188681 0.190503 0.192323 0.198397 0.204471 0.210539 0.216596
0.222642 0.228676 0.234711 0.240745 0.24678 0.252813 0.258844 0.264875 0.270906 0.276937
0.282968 0.288999 0.29503 0.301061 0.307092 0.313123 0.319153 0.325184 0.331215 0.337246
0.343277 0.349308 0.355339 0.36137 0.367401 0.373432 0.379464 0.385495 0.391526 0.397557
0.403589 0.40962 0.415664 0.42172 0.427788 0.433859 0 7.42295e-05 0.000148465 0.000222708
0.000296957 0.000371213 0.000509496 0.000647802 0.000786131 0.000924485 0.000976665 0.00104772 0.00111878 0.00118985
0.00126092 0.001332 0.00152429 0.00171662 0.001909 0.00210143 0.00229391 0.00248644 0.00267902 0.00287165
0.00306434 0.00325707 0.00344986 0.00364271 0.00383562 0.00402858 0.00422161 0.00441469 0.00460783 0.00480104
0.00499432 0.00518767 0.00538108 0.00557457 0.00576814 0.00596179 0.00615552 0.00634932 0.00654321 0.00673718
0.00693123 0.00712537 0.00731959 0.00751389 0.00770827 0.00790273 0.00809728 0.00829191 0.00848661 0.00868139
0.00887625 0.00907118 0.00926619 0.00946126 0.0096564 0.00985161 0.0100469 0.0102423 0.0104377 0.0106332
0.0108287 0.0110243 0.01122 0.0114158 0.0116116 0.0118075 0.0120035 0.0121995 0.0123956 0.0125918
0.012788 0.0129843 0.0131807 0.0133771 0.0135737 0.0137703 0.013967 0.0141637 0.0143606 0.0145575
0.0147545 0.0149516 0.0151488 0.0153461 0.0155435 0.0157409 0.0159385 0.0159418 0.0159452 0.0159486
0.0159519 0.0159553 0.0161496 0.016344 0.0165385 0.0167331 0.0169277 0.0171259 0.0173242 0.0175226
0.0177211 0.0179197 0.0181184 0.0183173 0.0185162 0.0187153 0.0189146 0.0191139 0.0193134 0.019513
0.0197128 0.0199127 0.0201127 0.0203129 0.0205132 0.0207137 0.0209144 0.0211152 0.0213162 0.0215173
0.0217186 0.0219201 0.0221217 0.0223236 0.0225256 0.0227278 0.0229302 0.0231328 0.0233356 0.0235385
0.0237418 0.0239452 0.0241488 0.0243526 0.0245567 0.024761 0.0249656 0.0251704 0.0253754 0.0255807
0.0257863 0.0259921 0.0261981 0.0264045 0.0266112 0.0268181 0.0270253 0.0272328 0.0274407 0.0276489
0.0278574 0.0280662 0.0282753 0.0284848 0.0286947 0.028905 0.0291156 0.0293266 0.029538 0.0297498
0.029962 0.0301747 0.0302224 0.0302702 0.030318 0.0303658 0.0304122 0.0305782 0.0307446 0.0309111
0.031078 0.0312452 0.0314606 0.0316766 0.0318931 0.0321102 0.0323278 0.032546 0.0327647 0.0329841
0.0332041 0.0334248 0.0336461 0.0338681 0.0340908 0.0343142 0.0345384 0.0347633 0.0349891 0.0352157
0.0354431 0.0356714 0.0359006 0.0361307 0.0363618 0.0365939 0.036827 0.0370612 0.0372965 0.037533
0.0377708 0.0380097 0.0382498 0.0384913 0.0387343 0.0389786 0.0392245 0.0394718 0.0397209 0.0399718
0.0402245 0.0404789 0.0407351 0.0409934 0.0412538 0.0415165 0.0417813 0.0420484 0.0423182 0.0425907
0.0428661 0.0431444 0.0434262 0.0437113 0.0439999 0.0442922 0.0445883 0.0448876 0.0451914 0.0454997
0.0458127 0.0461317 0.0464536 0.0467804 0.0471124 0.0474497 0.0477979 0.0480781 0.0483626 0.0486507
0.0489418 0.0489996 0.0491271 0.0492551 0.0493835 0.0495124 0.0496446 0.0500329 0.0504251 0.0508203
0.0512141 0.0513087 0.0513779 0.0514469 0.0515159 0.0515847 0.0516551 0.0519158 0.0521733 0.0524273