# vtk DataFile Version 2.0
tracks
ASCII
DATASET POLYDATA
POINTS 20395 float
-1.001 1e-07 0.0011 -0.99955 1.00198e-07 0.00110002 -0.9981 1.00377e-07 0.00110005 -0.99665 1.00539e-07
0.00110007 -0.9952 1.00682e-07 0.00110011 -0.99375 1.00808e-07 0.00110014 -0.99 1.01063e-07 0.00110024
-0.98625 1.01339e-07 0.00110034 -0.9825 1.01615e-07 0.00110044 -0.97875 1.01845e-07 0.00110055 -0.975
1.01983e-07 0.00110068 -0.97125 1.02009e-07 0.00110083 -0.9675 1.02056e-07 0.00110099 -0.96375 1.02102e-07
0.00110114 -0.96 1.02186e-07 0.0011013 -0.95625 1.02344e-07 0.00110146 -0.9525 1.02564e-07 0.00110163
-0.94875 1.02795e-07 0.0011018 -0.945 1.03026e-07 0.00110198 -0.94125 1.0324e-07 0.00110215 -0.9375
1.03422e-07 0.00110233 -0.93375 1.03551e-07 0.00110251 -0.93 1.03701e-07 0.00110269 -0.92625 1.03851e-07
0.00110287 -0.9225 1.03985e-07 0.00110305 -0.91875 1.0409e-07 0.00110323 -0.915 1.04143e-07 0.00110342
-0.91125 1.04218e-07 0.0011036 -0.9075 1.04293e-07 0.00110379 -0.90375 1.04485e-07 0.00110398 -0.9
1.04905e-07 0.00110417 -0.89625 1.0553e-07 0.00110437 -0.8925 1.06464e-07 0.00110456 -0.88875 1.07685e-07
0.00110477 -0.885 1.09057e-07 0.00110497 -0.88125 1.10428e-07 0.00110518 -0.8775 1.11791e-07 0.00110538
-0.87375 1.13153e-07 0.00110559 -0.87 1.14502e-07 0.0011058 -0.86625 1.15846e-07 0.00110602 -0.8625
1.17191e-07 0.00110624 -0.85875 1.18527e-07 0.00110645 -0.855 1.19683e-07 0.00110667 -0.85125 1.20648e-07
0.0011069 -0.8475 1.21514e-07 0.00110713 -0.84375 1.22381e-07 0.00110736 -0.84 1.23218e-07 0.00110759
-0.83625 1.23949e-07 0.00110782 -0.8325 1.24542e-07 0.00110806 -0.82875 1.25062e-07 0.0011083 -0.825
1.25582e-07 0.00110855 -0.82125 1.26094e-07 0.00110879 -0.8175 1.26671e-07 0.00110904 -0.81375 1.27303e-07
0.00110929 -0.81 1.27965e-07 0.00110955 -0.80625 1.28628e-07 0.00110981 -0.8025 1.29281e-07 0.00111007
-0.79875 1.30165e-07 0.00111033 -0.795 1.31268e-07 0.0011106 -0.79125 1.32488e-07 0.00111088 -0.7875
1.33709e-07 0.00111115 -0.78375 1.34895e-07 0.00111143 -0.78 1.36284e-07 0.00111171 -0.77625 1.37837e-07
0.00111199 -0.7725 1.3948e-07 0.00111229 -0.76875 1.41123e-07 0.00111258 -0.765 1.42728e-07 0.00111287
-0.76125 1.44406e-07 0.00111317 -0.7575 1.46117e-07 0.00111348 -0.75375 1.47846e-07 0.00111379 -0.75
1.49576e-07 0.0011141 -0.74625 1.51297e-07 0.00111441 -0.7425 1.52967e-07 0.00111472 -0.73875 1.54575e-07
0.00111505 -0.735 1.56148e-07 0.00111538 -0.73125 1.57723e-07 0.00111571 -0.7275 1.59289e-07 0.00111604
-0.72375 1.60779e-07 0.00111638 -0.72 1.6218e-07 0.00111673 -0.71625 1.63534e-07 0.00111708 -0.7125
1.64888e-07 0.00111743 -0.70875 1.66233e-07 0.00111778 -0.705 1.67526e-07 0.00111814 -0.70125 1.68752e-07
0.00111851 -0.6975 1.69943e-07 0.00111888 -0.69375 1.71134e-07 0.00111926 -0.69 1.72265e-07 0.00111963
-0.68625 1.73422e-07 0.00112001 -0.6825 1.74541e-07 0.00112041 -0.67875 1.7564e-07 0.0011208 -0.675
1.76739e-07 0.0011212 -0.67125 1.77772e-07 0.0011216 -0.6675 1.78842e-07 0.00112201 -0.66375 1.79879e-07
0.00112242 -0.66 1.80897e-07 0.00112285 -0.65625 1.81915e-07 0.00112327 -0.6525 1.82926e-07 0.00112369
-0.64875 1.83937e-07 0.00112413 -0.645 1.84935e-07 0.00112457 -0.64125 1.85925e-07 0.00112502 -0.6375
1.86916e-07 0.00112547 -0.63375 1.87827e-07 0.00112592 -0.63 1.88869e-07 0.00112638 -0.62625 1.89956e-07
0.00112685 -0.6225 1.91069e-07 0.00112733 -0.61875 1.92182e-07 0.00112781 -0.615 1.93207e-07 0.00112829
-0.61125 1.94333e-07 0.00112878 -0.6075 1.95463e-07 0.00112928 -0.60375 1.96596e-07 0.00112979 -0.6
1.9773e-07 0.0011303 -0.59625 1.98766e-07 0.00113082 -0.5925 1.9991e-07 0.00113133 -0.58875 2.01055e-07
0.00113184 -0.585 2.02189e-07 0.00113236 -0.58125 2.03303e-07 0.00113289 -0.5775 2.0439e-07 0.00113344
-0.57375 2.05494e-07 0.00113398 -0.57 2.06599e-07 0.00113453 -0.56625 2.07714e-07 0.00113508 -0.5625
2.08844e-07 0.00113565 -0.55875 2.09985e-07 0.00113624 -0.555 2.11144e-07 0.00113682 -0.55125 2.12304e-07
0.0011374 -0.5475 2.13485e-07 0.001138 -0.54375 2.14701e-07 0.00113861 -0.54 2.15813e-07 0.00113923
-0.53625 2.17078e-07 0.00113986 -0.5325 2.18344e-07 0.00114048 -0.52875 2.19625e-07 0.00114112 -0.525
2.20929e-07 0.00114177 -0.52125 2.22253e-07 0.00114244 -0.5175 2.23596e-07 0.00114311 -0.51375 2.24942e-07
0.00114378 -0.51 2.26279e-07 0.00114446 -0.50625 2.27603e-07 0.00114516 -0.5025 2.28913e-07 0.00114587
-0.49875 2.30242e-07 0.00114659 -0.495 2.31573e-07 0.0011473 -0.49125 2.32898e-07 0.00114803 -0.4875
2.34211e-07 0.00114877 -0.48375 2.35315e-07 0.00114953 -0.48 2.36638e-07 0.00115029 -0.47625 2.37964e-07
0.00115106 -0.4725 2.39279e-07 0.00115183 -0.46875 2.40577e-07 0.00115262 -0.465 2.41633e-07 0.00115343
-0.46125 2.42939e-07 0.00115423 -0.4575 2.44247e-07 0.00115504 -0.45375 2.45546e-07 0.00115586 -0.45
2.46831e-07 0.00115669 -0.44625 2.47845e-07 0.00115754 -0.4425 2.49144e-07 0.00115839 -0.43875 2.50446e-07
0.00115924 -0.435 2.51706e-07 0.0011601 -0.43125 2.52902e-07 0.00116097 -0.4275 2.54043e-07 0.00116185
-0.42375 2.55208e-07 0.00116274 -0.42 2.56375e-07 0.00116362 -0.41625 2.57458e-07 0.00116451 -0.4125
2.5841e-07 0.00116541 -0.40875 2.59243e-07 0.00116632 -0.405 2.60102e-07 0.00116722 -0.40125 2.60963e-07
0.00116813 -0.3975 2.61734e-07 0.00116904 -0.39375 2.62368e-07 0.00116994 -0.39 2.62488e-07 0.00117085
-0.38625 2.63028e-07 0.00117176 -0.3825 2.6357e-07 0.00117267 -0.37875 2.64017e-07 0.00117357 -0.375
2.64324e-07 0.00117445 -0.37125 2.64064e-07 0.00117533 -0.3675 2.64279e-07 0.0011762 -0.36375 2.64494e-07
0.00117708 -0.36 2.6461e-07 0.00117793 -0.35625 2.64581e-07 0.00117875 -0.3525 2.64436e-07 0.00117955
-0.34875 2.64318e-07 0.00118034 -0.345 2.64199e-07 0.00118113 -0.34125 2.63978e-07 0.00118188 -0.3375
2.63606e-07 0.00118258 -0.33375 2.62546e-07 0.00118322 -0.33 2.62087e-07 0.00118386 -0.32625 2.61627e-07
0.0011845 -0.3225 2.61051e-07 0.00118507 -0.31875 2.60308e-07 0.00118555 -0.315 2.58796e-07 0.00118593
-0.31125 2.57956e-07 0.00118631 -0.3075 2.57113e-07 0.0011867 -0.30375 2.5619e-07 0.00118697 -0.3
2.55156e-07 0.0011871 -0.29625 2.5334e-07 0.00118709 -0.2925 2.52103e-07 0.00118685 -0.28875 2.50694e-07
0.00118638 -0.285 2.49162e-07 0.00118577 -0.28125 2.47626e-07 0.00118515 -0.2775 2.46148e-07 0.00118453
-0.27375 2.44389e-07 0.00118359 -0.27 2.42316e-07 0.00118233 -0.26625 2.40021e-07 0.00118084 -0.2625
2.37724e-07 0.00117935 -0.25875 2.3549e-07 0.00117787 -0.255 2.3279e-07 0.00117592 -0.25125 2.2959e-07
0.00117351 -0.2475 2.26047e-07 0.00117078 -0.24375 2.22502e-07 0.00116805 -0.24 2.18108e-07 0.00116533
-0.23625 2.1398e-07 0.001162 -0.2325 2.0917e-07 0.00115804 -0.22875 2.03919e-07 0.00115369 -0.225
1.98672e-07 0.00114935 -0.22125 1.93504e-07 0.00114504 -0.2175 1.87557e-07 0.00113989 -0.21375 1.80808e-07
0.00113391 -0.21 1.7359e-07 0.00112746 -0.20625 1.66389e-07 0.00112105 -0.2025 1.59275e-07 0.00111469
-0.19875 1.51125e-07 0.00110715 -0.195 1.41925e-07 0.00109844 -0.19125 1.32207e-07 0.00108917 -0.1875
1.22537e-07 0.00107999 -0.18375 1.12266e-07 0.0010709 -0.18 1.01559e-07 0.00106028 -0.17625 8.97205e-08
0.00104815 -0.1725 7.74835e-08 0.00103552 -0.16875 6.53482e-08 0.00102305 -0.165 5.29353e-08 0.00101076
-0.16125 3.93615e-08 0.000996658 -0.1575 2.42453e-08 0.000980795 -0.15375 8.86421e-09 0.000964689 -0.151563
2.88366e-12 0.000955466 -0.15125 -1.25463e-09 0.000954162 -0.150938 -2.51088e-09 0.00095286 -0.150625 -3.76588e-09
0.00095156 -0.150313 -5.01963e-09 0.000950262 -0.15 -6.27214e-09 0.000948966 -0.14625 -2.12865e-08 0.00093344
-0.1425 -3.74325e-08 0.000915876 -0.13875 -5.46662e-08 0.00089634 -0.135 -7.17292e-08 0.000877059 -0.13125
-8.8512e-08 0.00085823 -0.1275 -1.04443e-07 0.000839841 -0.12375 -1.23886e-07 0.000819354 -0.12 -1.45746e-07
0.000797183 -0.11625 -1.67148e-07 0.000775652 -0.1125 -1.88108e-07 0.000754738 -0.10875 -2.07366e-07 0.000734422
-0.105 -2.291e-07 0.00071205 -0.10125 -2.51345e-07 0.000688695 -0.0975 -2.73039e-07 0.000666133 -0.0937499
-2.94204e-07 0.000644335 -0.0899999 -3.14944e-07 0.000623274 -0.0862499 -3.4078e-07 0.000600611 -0.0824999 -3.68158e-07
0.000577861 -0.0787499 -3.94767e-07 0.00055598 -0.0749999 -4.20637e-07 0.000534933 -0.0712499 -4.45875e-07 0.000514688
-0.0674999 -4.82913e-07 0.000494284 -0.0637499 -5.20926e-07 0.000474524 -0.0599999 -5.57823e-07 0.000455543 -0.0562499
-5.93648e-07 0.000437311 -0.0524999 -6.24492e-07 0.000419797 -0.0487498 -6.68978e-07 0.000404628 -0.0449998 -7.12329e-07
0.00038999 -0.0412498 -7.54583e-07 0.000375867 -0.0374998 -7.9578e-07 0.000362241 -0.0337498 -8.35955e-07 0.000349095
-0.0299998 -8.85917e-07 0.000340309 -0.0262498 -9.35094e-07 0.000331735 -0.0224998 -9.83504e-07 0.00032337 -0.0187499
-1.03117e-06 0.000315208 -0.0149999 -1.07796e-06 0.000307245 -0.0112499 -1.14349e-06 0.000303592 -0.0074999 -1.2087e-06
0.000299981 -0.00374991 -1.27359e-06 0.000296411 6.11907e-08 -1.33819e-06 0.000292882 0.00375005 -1.39508e-06 0.000289394
0.00750005 -1.45805e-06 0.000285949 0.01125 -1.52067e-06 0.000282543 0.015 -1.58296e-06 0.000279176 0.01875
-1.64493e-06 0.000275848 0.0225 -1.7194e-06 0.000274652 0.02625 -1.80104e-06 0.000273462 0.03 -1.88272e-06
0.000272277 0.03375 -1.96446e-06 0.000271098 0.0375 -2.04624e-06 0.000269923 0.04125 -2.1364e-06 0.000269327
0.045 -2.23454e-06 0.000268733 0.04875 -2.33286e-06 0.000268141 0.0525 -2.43137e-06 0.000267549 0.05625
-2.53006e-06 0.00026696 0.06 -2.64794e-06 0.000266663 0.06375 -2.76539e-06 0.000266367 0.0675 -2.88312e-06
0.000266072 0.07125 -3.00113e-06 0.000265777 0.075 -3.11943e-06 0.000265482 0.07875 -3.24807e-06 0.000265322
0.0825 -3.38671e-06 0.000265162 0.08625 -3.52571e-06 0.000265002 0.09 -3.66506e-06 0.000264843 0.09375
-3.80477e-06 0.000264684 0.0975 -3.95355e-06 0.000264568 0.10125 -4.11409e-06 0.000264454 0.105 -4.27504e-06
0.000264339 0.10875 -4.43642e-06 0.000264225 0.1125 -4.59821e-06 0.00026411 0.11625 -4.78057e-06 0.000264004
0.12 -4.96337e-06 0.000263898 0.12375 -5.14665e-06 0.000263793 0.1275 -5.33042e-06 0.000263687 0.13125
-5.51468e-06 0.000263582 0.135 -5.71888e-06 0.000263466 0.13875 -5.92372e-06 0.000263351 0.1425 -6.12912e-06
[...]
POINT_DATA 20395
FIELD attributes 3
age 1 20395 float
0 7.30731e-05 0.00014615 0.000219231 0.000292315 0.000365404 0.000554436 0.000743468 0.0009325 0.00112155 0.00131063
0.00149975 0.00168887 0.00187799 0.00206712 0.00225629 0.0024455 0.00263471 0.00282392 0.00301315 0.00320242
0.00339172 0.00358103 0.00377034 0.00395966 0.00414903 0.00433844 0.00452786 0.00471727 0.0049067 0.00509618
0.00528571 0.00547528 0.00566489 0.00585454 0.00604418 0.00623383 0.00642352 0.00661326 0.00680304 0.00699281
0.00718258 0.00737241 0.00756229 0.0077522 0.00794211 0.00813202 0.00832199 0.00851201 0.00870207 0.00889213
0.00908219 0.00927231 0.00946249 0.0096527 0.00984292 0.0100331 0.0102234 0.0104138 0.0106042 0.0107945
0.0109849 0.0111754 0.0113659 0.0115565 0.0117471 0.0119376 0.0121283 0.012319 0.0125098 0.0127006
0.0128913 0.0130822 0.0132731 0.0134641 0.0136551 0.0138461 0.0140371 0.0142283 0.0144195 0.0146107
0.0148019 0.0149932 0.0151846 0.0153761 0.0155676 0.015759 0.0159506 0.0161423 0.016334 0.0165257
0.0167175 0.0169093 0.0171013 0.0172933 0.0174853 0.0176773 0.0178695 0.0180617 0.0182541 0.0184464
0.0186387 0.0188312 0.0190238 0.0192165 0.0194092 0.0196018 0.0197947 0.0199876 0.0201807 0.0203737
0.0205668 0.0207599 0.0209529 0.0211461 0.0213394 0.0215329 0.0217263 0.0219198 0.0221134 0.0223071
0.022501 0.0226949 0.0228888 0.0230829 0.0232771 0.0234715 0.0236659 0.0238603 0.0240548 0.0242496
0.0244445 0.0246394 0.0248344 0.0250295 0.0252248 0.0254203 0.0256158 0.0258114 0.0260071 0.026203
0.0263992 0.0265954 0.0267916 0.026988 0.0271846 0.0273815 0.0275784 0.0277753 0.0279725 0.0281699
0.0283676 0.0285653 0.028763 0.0289609 0.0291592 0.0293578 0.0295564 0.029755 0.0299539 0.0301531
0.0303526 0.0305522 0.0307518 0.0309517 0.0311519 0.0313526 0.0315532 0.0317539 0.0319549 0.0321563
0.0323581 0.03256 0.0327618 0.032964 0.0331667 0.0333698 0.033573 0.0337762 0.0339797 0.0341837
0.0343883 0.0345929 0.0347974 0.0350024 0.0352079 0.035414 0.0356201 0.0358262 0.0360327 0.0362397
0.0364474 0.0366557 0.0368645 0.0370738 0.0372831 0.0374924 0.0377023 0.0379127 0.0381236 0.0383344
0.0385453 0.0387566 0.0389686 0.0391809 0.0393931 0.0396053 0.0398179 0.040031 0.0402444 0.0404576
0.0406708 0.0408842 0.041098 0.0413119 0.0415257 0.0417392 0.0419528 0.0421665 0.0423801 0.0425934
0.0428064 0.0430191 0.0432314 0.0434434 0.043655 0.0438663 0.0440768 0.0442864 0.0444954 0.0446171
0.0446345 0.0446519 0.0446692 0.0446866 0.044704 0.0449122 0.0451191 0.0453244 0.0455293 0.0457337
0.0459377 0.0461397 0.0463397 0.0465393 0.0467386 0.0469376 0.0471338 0.0473282 0.0475224 0.0477163
0.04791 0.0481004 0.0482895 0.0484785 0.0486674 0.0488563 0.0490415 0.0492262 0.049411 0.049596
0.049781 0.0499627 0.0501446 0.0503267 0.050509 0.0506915 0.0508719 0.0510524 0.0512332 0.0514141
0.0515951 0.0517755 0.0519559 0.0521364 0.052317 0.0524977 0.0526784 0.0528592 0.0530401 0.0532211
0.0534022 0.0535833 0.0537644 0.0539455 0.0541267 0.0543082 0.0544896 0.0546711 0.0548526 0.0550341
0.055216 0.0553978 0.0555797 0.0557615 0.0559434 0.0561255 0.0563077 0.0564899 0.056672 0.0568542
0.0570367 0.0572191 0.0574016 0.0575841 0.0577666 0.0579493 0.0581321 0.0583148 0.0584976 0.0586804
0.0588634 0.0590465 0.0592296 0.0594126 0.0595957 0.0597791 0.0599624 0.0601458 0.0603291 0.0605125
0.0606962 0.0608798 0.0610635 0.0612472 0.0614308 0.0616148 0.0617988 0.0619827 0.0621667 0.0623506
0.0625349 0.0627191 0.0629034 0.0630876 0.0632719 0.0634564 0.0636409 0.0638254 0.0640099 0.0641944
0.0643791 0.0645639 0.0647486 0.0649334 0.0651181 0.0653031 0.0654881 0.065673 0.065858 0.066043
0.0662281 0.0664133 0.0665985 0.0667837 0.0669688 0.0671542 0.0673397 0.0675252 0.0677107 0.0678962
0.0680818 0.0682674 0.0684531 0.0686388 0.0688244 0.0690101 0.0691959 0.0693817 0.0695675 0.0697533
0.0699392 0.0701251 0.070311 0.070497 0.0706829 0.0708688 0.0710549 0.0712409 0.071427 0.071613
0.0717991 0.0719852 0.0721713 0.0723575 0.0725436 0.0727298 0.072916 0.0731022 0.0732884 0.0734746
0.0736609 0.0738471 0.0740334 0.0742197 0.074406 0.0745922 0.0747786 0.0749649 0.0751512 0.0753375
0.0755239 0.0757102 0.0758966 0.0760829 0.0762693 0.0764556 0.076642 0.0768284 0.0770147 0.0772011
0.0773875 0.0775738 0.0777602 0.0779465 0.0781329 0.0783193 0.0785056 0.078692 0.0788783 0.0790647
0.0792511 0.0794374 0.0796238 0.0798101 0.0799965 0.0801829 0.0803692 0.0805556 0.080742 0.0809284
0.0811148 0.0813012 0.0814876 0.081674 0.0818604 0.0820469 0.0822333 0.0824197 0.0826062 0.0827926
0.0829791 0.0831656 0.0833521 0.0835386 0.0837251 0.0839116 0.0840982 0.0842848 0.0844714 0.0846579
0.0848446 0.0850313 0.0852179 0.0854046 0.0855912 0.085778 0.0859648 0.0861515 0.0863383 0.086525
0.0867119 0.0868987 0.0870855 0.0872724 0.0874592 0.0876461 0.0878331 0.08802 0.0882069 0.0883938
0.0885808 0.0887678 0.0889548 0.0891418 0.0893288 0.0895159 0.089703 0.0898901 0.0900771 0.0902642
0.0904514 0.0906385 0.0908256 0.0910128 0.0911999 0.0913871 0.0915743 0.0917615 0.0919487 0.0921359
0.0923232 0.0925105 0.0926977 0.092885 0.0930723 0.0932596 0.0934469 0.0936342 0.0938215 0.0940089
0.0941962 0.0943836 0.094571 0.0947584 0.0949457 0.0951332 0.0953206 0.095508 0.0956955 0.0958829
0.0960704 0.0962579 0.0964454 0.0966329 0.0968204 0.0970079 0.0971956 0.0973833 0.097571 0.0977586
0.0979463 0.0981342 0.098322 0.0985099 0.0986978 0.0988856 0.0990738 0.099262 0.0994502 0.0996384
0.0998265 0.100015 0.100204 0.100393 0.100581 0.10077 0.100959 0.101149 0.101338 0.101527
0.101539 0.10155 0.101562 0.101573 0.101585 0.101764 0.101942 0.102121 0.1023 0.102478
0.102669 0.10286 0.103051 0.103242 0.103433 0.103624 0.103816 0.104007 0.104199 0.10439
0.104582 0.104773 0.104965 0.105156 0.105347 0.105538 0.105729 0.10592 0.106111 0.106302
0.106493 0.106683 0.106874 0.107064 0.107254 0.107445 0.107634 0.107824 0.108014 0.108203
0.108393 0.108582 0.108771 0.10896 0.109149 0.109338 0.109527 0.109716 0.109905 0.110093
0.110282 0.11047 0.110659 0.110847 0.111035 0.111224 0.111412 0.1116 0.111788 0.111976
0.112164 0.112353 0.112541 0.112729 0.112917 0.113105 0.113293 0.113481 0.113669 0.113856
0.114044 0.114232 0.11442 0.114608 0.114796 0.114984 0.115171 0.115359 0.115547 0.115735
0.115923 0.116111 0.116298 0.116486 0.116674 0.116862 0.11705 0.117237 0.117425 0.117613
0.117801 0.117988 0.118176 0.118364 0.118552 0.118739 0.118927 0.119115 0.119303 0.11949
0.119678 0.119866 0.120054 0.120241 0.120429 0.120617 0.120805 0.120992 0.12118 0.121368
0.121555 0.121743 0.121931 0.122119 0.122306 0.122494 0.122682 0.122869 0.123057 0.123245
0.123432 0.12362 0.123808 0.123995 0.124183 0.124371 0.124558 0.124746 0.124934 0.125121
0.125309 0.125497 0.125684 0.125872 0.12606 0.126247 0.126435 0.126623 0.12681 0.126998
0.127186 0.127373 0.127561 0.127748 0.127936 0.128124 0.128311 0.128499 0.128686 0.128874
0.129062 0.129249 0.129437 0.129625 0.129812 0.13 0.130187 0.130375 0.130563 0.13075
0.130938 0.131125 0.131313 0.1315 0.131688 0.131876 0.132063 0.132251 0.132438 0.132626
0.132814 0.133001 0.133189 0.133376 0.133564 0.133751 0.133939 0.134127 0.134314 0.134502
0.134689 0.134877 0.135064 0.135252 0.13544 0.135627 0.135815 0.136002 0.13619 0.136377
0.136565 0.136753 0.13694 0.137128 0.137315 0.137503 0.13769 0.137878 0.138065 0.138253
0.138441 0.138628 0.138816 0.139003 0.139191 0.139378 0.139566 0.139753 0.139941 0.140129
0.140316 0.140504 0.140691 0.140879 0.141066 0.141254 0.141441 0.141629 0.141817 0.142004
0.142192 0.142379 0.142567 0.142754 0.142942 0.143129 0.143317 0.143505 0.143692 0.14388
0.144067 0.144255 0.144442 0.14463 0.144817 0.145005 0.145192 0.14538 0.145568 0.145755
0.145943 0.14613 0.146318 0.146505 0.146693 0.14688 0.147068 0.147256 0.147443 0.147631
0.147818 0.148006 0.148193 0.148381 0.148568 0.148756 0.148943 0.149131 0.149319 0.149506
0.149694 0.149881 0.150069 0.150256 0.150444 0.150631 0.150819 0.151006 0.151194 0.151382
0.151757 0.152132 0.152507 0.152882 0.153257 0.154007 0.154757 0.155507 0.156258 0.157008
0.158508 0.160008 0.161508 0.163008 0.164508 0.166008 0.167508 0.169008 0.170508 0.172008
0.175009 0.178009 0.181009 0.184009 0.187009 0.193009 0.199009 0.205009 0.211009 0.217009
0.223009 0.229009 0.235009 0.241009 0.247009 0.253009 0.25901 0.26501 0.27101 0.27701
0.28301 0.28901 0.29501 0.30101 0.30701 0.31301 0.31901 0.32501 0.33101 0.33701
0.34301 0.34901 0.35501 0.36101 0.36701 0.37301 0.37901 0.38501 0.39101 0.39701
0.40301 0.409025 0.415055 0.4211 0.427161 0 7.38252e-05 0.000147655 0.000221488 0.000295326
0.000369169 0.000560153 0.000751175 0.000942232 0.00113333 0.00132446 0.00151562 0.00170683 0.00189807 0.00208935
0.00228067 0.00247203 0.00266343 0.00285487 0.00304635 0.00323787 0.00342943 0.00362103 0.00381268 0.00400437
0.00419611 0.00438789 0.00457971 0.00477159 0.0049635 0.00515547 0.00534748 0.00553955 0.00573166 0.00592382
0.00611603 0.0063083 0.00650061 0.00669298 0.00688541 0.00707789 0.00727042 0.00746301 0.00765565 0.00784836
0.00804112 0.00823394 0.00842682 0.00861976 0.00881277 0.00900583 0.00919896 0.00939216 0.00958542 0.00977874
0.00997214 0.0101656 0.0103591 0.0105527 0.0107464 0.0109402 0.011134 0.0113279 0.0115218 0.0117159
0.01191 0.0121042 0.0122985 0.0124929 0.0126873 0.0128819 0.0130765 0.0132712 0.013466 0.0136609
0.0138559 0.0140509 0.0142461 0.0144413 0.0146367 0.0148322 0.0150277 0.0152234 0.0154191 0.015615
0.0158109 0.016007 0.0162032 0.0163995 0.0165959 0.0167924 0.016989 0.0171858 0.0173827 0.0175797
0.0177768 0.017974 0.0181714 0.0183689 0.0185666 0.0187643 0.0189622 0.0191603 0.0193585 0.0195568
0.0197553 0.0199539 0.0201527 0.0203516 0.0205507 0.02075 0.0209494 0.0211489 0.0213487 0.0215486
0.0217487 0.021949 0.0221494 0.0223501 0.0225509 0.022752 0.0229532 0.0231546 0.0233563 0.0235581
0.0237602 0.0239624 0.024165 0.0243677 0.0245707 0.0247739 0.0249773 0.025181 0.025385 0.0255892
0.0257937 0.0259985 0.0262035 0.0264089 0.0266145 0.0268205 0.0270267 0.0272332 0.0274401 0.0276473
0.0278548 0.0280626 0.0282709 0.0284794 0.0286884 0.0288977 0.0291073 0.0293174 0.0295279 0.0297387
0.02995 0.0301617 0.0303738 0.0305864 0.0307994 0.0310129 0.0312269 0.0314413 0.0316562 0.0318717
0.0320876 0.0323041 0.0325211 0.0327387 0.0329568 0.0331755 0.0333948 0.0336147 0.0338353 0.0340564
0.0342782 0.0345007 0.0347239 0.0349477 0.0351723 0.0353976 0.0354703 0.0355431 0.0356159 0.0356888
0.0357541 0.0359098 0.0360659 0.0362224 0.0363793 0.0365366 0.0367666 0.0369976 0.0372295 0.0374623
0.0376959 0.0379305 0.0381661 0.0384027 0.0386403 0.038879 0.0391187 0.0393596 0.0396016 0.0398447
0.040089 0.0403345 0.0405811 0.0408289 0.041078 0.0413285 0.0415802 0.0418333 0.0420877 0.0423436
0.0426008 0.0428593 0.0431191 0.0433801 0.0436425 0.0439067 0.0441721 0.0444388 0.0447069 0.044976
0.0452472 0.0455189 0.0457913 0.0460644 0.046338 0.0466143 0.0467567 0.046899 0.0470413 0.0471835
0.0472671 0.0474128 0.0475584 0.0477039 0.0478492 0.0479955 0.0482712 0.0485453 0.0488176 0.049088
0.0493617 0.0495205 0.049678 0.0498341 0.049989 0.0501055 0.0502198 0.0503334 0.0504463 0.0505585
0.050671 0.0509235 0.0511708 0.051413 0.0516504 0.0518844 0.0519045 0.0519246 0.0519446 0.0519646
0.0519847 0.0521907 0.0523923 0.0525896 0.0527827 0.0529698 0.0530859 0.0532001 0.0533126 0.0534236
0.0535635 0.0536368 0.0537094 0.0537814 0.0538529 0.0539232 0.0541011 0.0542753 0.054446 0.0546133
0.0547741 0.0549156 0.0550556 0.055194 0.0553309 0.0555556 0.0555704 0.0555852 0.0556 0.0556148
0.0556315 0.0557659 0.0558997 0.0560329 0.0561656 0.056297 0.0564429 0.056589 0.0567353 0.0568817
0.0570281 0.0571745 0.0573213 0.0574685 0.057616 0.0577639 0.0579122 0.0580609 0.0582099 0.0583594
0.0585093 0.0586595 0.0588101 0.058961 0.0591123 0.0592639 0.059416 0.0595683 0.059721 0.0598741
0.0600275 0.0601813 0.0603354 0.0604898 0.0606446 0.0607997 0.0609552 0.061111 0.0612671 0.0614237
0.0615806 0.0617378 0.0618954 0.0620533 0.0622117 0.0623704 0.0625294 0.0626889 0.0628488 0.063009
0.0631696 0.0633306 0.063492 0.0636537 0.0638159 0.0639784 0.0641414 0.0643047 0.0644684 0.0646325
0.0647969 0.0649618 0.065127 0.0652925 0.0654584 0.0656247 0.0657914 0.0659585 0.0661259 0.0662936
0.0664617 0.0666302 0.0667989 0.066968 0.0671374 0.0673072 0.0674773 0.0676477 0.0678185 0.0679896
0.068161 0.0683327 0.0685047 0.0686769 0.0688495 0.0690224 0.0691956 0.0693691 0.0695429 0.0697169
0.0698913 0.0700659 0.0702407 0.0704158 0.0705912 0.0707669 0.0709428 0.071119 0.0712954 0.0714722
0.0716491 0.0718263 0.0720037 0.0721813 0.0723592 0.0725373 0.0727157 0.0728942 0.0730731 0.0732521
0.0734313 0.0736107 0.0737903 0.0739701 0.0741501 0.0743302 0.0745106 0.0746912 0.074872 0.0750529
0.075234 0.0754152 0.0755966 0.0757781 0.0759597 0.0761415 0.0763235 0.0765055 0.0766877 0.0768701
0.0770525 0.077235 0.0774176 0.0776003 0.077783 0.0779659 0.0781488 0.0783318 0.0785148 0.0786979
0.0788811 0.0790643 0.0792475 0.0794307 0.079614 0.0797973 0.0799806 0.0801639 0.0803473 0.0805307
0.080714 0.0808974 0.0810808 0.0812642 0.0814476 0.0816311 0.0818145 0.0819981 0.0821816 0.0823652
0.0825489 0.0827325 0.0829163 0.0831002 0.0832841 0.0834681 0.0836522 0.0838364 0.0840208 0.0842053
0.0843899 0.0845746 0.0847595 0.0849446 0.0851297 0.0853151 0.0855006 0.0856863 0.0858721 0.0860581
0.0862443 0.0864306 0.0866172 0.0868039 0.0869908 0.0871778 0.0873651 0.0875525 0.0877401 0.0879278
0.0881158 0.0883039 0.0884922 0.0886806 0.0888692 0.089058 0.0892469 0.089436 0.0896252 0.0898145
0.0900041 0.0901937 0.0903836 0.0905735 0.0907637 0.0909539 0.0911443 0.0913348 0.0915254 0.0917161
0.091907 0.092098 0.0922892 0.0924805 0.0926718 0.0928633 0.0930549 0.0932466 0.0934383 0.0936302
0.0938222 0.0939374 0.0940528 0.0941681 0.0942835 0.0943951 0.0944728 0.0945505 0.0946282 0.094706
0.0947837 0.0949763 0.095169 0.0953617 0.0955546 0.0957475 0.0959406 0.0961337 0.096327 0.0965203
0.0967138 0.0969073 0.0971009 0.0972945 0.0974883 0.0976822 0.0978762 0.0980704 0.0982647 0.0984591
0.0986536 0.0988483 0.0990431 0.099238 0.0994332 0.0996286 0.0998242 0.10002 0.100217 0.100413
0.10061 0.100808 0.101007 0.101206 0.101405 0.101606 0.101806 0.102007 0.10221 0.102413
0.102618 0.102823 0.103031 0.10324 0.103451 0.103664 0.103878 0.104095 0.104314 0.104535
0.104758 0.104983 0.105211 0.105441 0.105674 0.105908 0.106145 0.106382 0.106622 0.106863
0.107105 0.10735 0.107596 0.107843 0.108091 0.10834 0.108589 0.108838 0.109086 0.109334
0.109583 0.109832 0.110082 0.110331 0.110578 0.110825 0.110887 0.110948 0.111009 0.11107
0.111129 0.111313 0.111497 0.111681 0.111864 0.112047 0.11229 0.11253 0.11277 0.113009
0.113247 0.113485 0.113722 0.113958 0.114193 0.114426 0.114658 0.11489 0.11512 0.115349
0.115577 0.115804 0.116031 0.116257 0.116482 0.116706 0.116929 0.117152 0.117374 0.117596
0.117817 0.117837 0.117857 0.117877 0.117897 0.117917 0.118117 0.118317 0.118516 0.118715
0.118914 0.119132 0.11935 0.119568 0.119786 0.120003 0.12022 0.120437 0.120653 0.120869
0.121085 0.121301 0.121516 0.121732 0.121947 0.122162 0.122376 0.122591 0.122806 0.12302
0.123234 0.123448 0.123661 0.123875 0.124088 0.124301 0.124514 0.124727 0.12494 0.125153
0.125365 0.125578 0.125789 0.126001 0.126213 0.126424 0.126635 0.126847 0.127058 0.127269
0.127479 0.12769 0.1279 0.12811 0.128319 0.128529 0.128738 0.128947 0.129157 0.129366
0.129574 0.129783 0.129991 0.130198 0.130406 0.130614 0.130821 0.131028 0.131235 0.131442
0.131648 0.131854 0.13206 0.132266 0.132472 0.132677 0.132882 0.133087 0.133292 0.133497
0.133701 0.133905 0.134109 0.134313 0.134516 0.134719 0.134922 0.135125 0.135328 0.135531
0.135733 0.135935 0.136137 0.136339 0.13654 0.136742 0.136943 0.137144 0.137345 0.137546
0.137746 0.137947 0.138147 0.138347 0.138547 0.138747 0.138946 0.139146 0.139345 0.139545
0.139744 0.139943 0.140142 0.14034 0.140539 0.140737 0.140936 0.141134 0.141332 0.14153
0.141728 0.141926 0.142124 0.142321 0.142519 0.142716 0.142914 0.143111 0.143308 0.143505
0.143702 0.143899 0.144096 0.144293 0.144489 0.144686 0.144882 0.145079 0.145275 0.145471
0.145668 0.145864 0.14606 0.146256 0.146452 0.146648 0.146844 0.14704 0.147235 0.147431
0.147627 0.147822 0.148018 0.148214 0.148409 0.148605 0.1488 0.148995 0.149191 0.149386
0.149581 0.149777 0.149972 0.150167 0.150362 0.150557 0.150752 0.150948 0.151143 0.151338
0.151533 0.151728 0.151923 0.152118 0.152313 0.152508 0.152703 0.152898 0.153093 0.153288
0.153483 0.153677 0.153872 0.154067 0.154262 0.154457 0.154652 0.154847 0.155042 0.155237
0.155432 0.155627 0.155822 0.156017 0.156211 0.156406 0.156601 0.156796 0.156991 0.157186
0.157381 0.157576 0.157771 0.157966 0.158162 0.158357 0.158552 0.158747 0.158942 0.159137
0.159333 0.159399 0.159465 0.15953 0.159596 0.159662 0.159988 0.160312 0.160636 0.160959
0.161281 0.162053 0.162826 0.163598 0.164367 0.165132 0.166655 0.168165 0.169675 0.171186
0.172696 0.174206 0.175714 0.177223 0.178731 0.180239 0.183256 0.186273 0.189289 0.192306
0.195323 0.201336 0.207348 0.213361 0.219373 0.225386 0.231391 0.237396 0.243401 0.249406
0.255411 0.261415 0.26742 0.273424 0.279428 0.285433 0.291437 0.297441 0.303446 0.30945
0.315454 0.321458 0.327462 0.333467 0.339471 0.345475 0.351479 0.357483 0.363487 0.369492
0.375496 0.3815 0.387504 0.393508 0.399512 0.405516 0.41152 0.417539 0.423573 0.429623
0.435687 0 7.38028e-05 0.000147611 0.000221424 0.000295242 0.000369065 0.00056 0.000750971 0.000941977
0.00113302 0.0013241 0.00151521 0.00170636 0.00189755 0.00208878 0.00228004 0.00247135 0.00266269 0.00285407
0.00304549 0.00323696 0.00342846 0.00362001 0.0038116 0.00400323 0.00419491 0.00438663 0.0045784 0.00477021
0.00496207 0.00515397 0.00534592 0.00553792 0.00572998 0.00592208 0.00611423 0.00630643 0.00649868 0.00669098
0.00688334 0.00707576 0.00726822 0.00746074 0.00765332 0.00784596 0.00803865 0.00823141 0.00842422 0.00861709
0.00881003 0.00900303 0.00919608 0.00938921 0.0095824 0.00977566 0.00996898 0.0101624 0.0103558 0.0105494
0.010743 0.0109366 0.0111304 0.0113242 0.0115181 0.0117121 0.0119061 0.0121003 0.0122945 0.0124888
0.0126831 0.0128776 0.0130721 0.0132668 0.0134615 0.0136563 0.0138512 0.0140462 0.0142413 0.0144365
0.0146317 0.0148271 0.0150226 0.0152182 0.0154138 0.0156096 0.0158055 0.0160015 0.0161976 0.0163938
0.0165902 0.0167866 0.0169832 0.0171799 0.0173767 0.0175737 0.0177707 0.0179679 0.0181653 0.0183627
0.0185603 0.0187581 0.018956 0.019154 0.0193522 0.0195506 0.0197491 0.0199477 0.0201466 0.0203456
0.0205448 0.0207441 0.0209437 0.0211434 0.0213433 0.0215435 0.0217438 0.0219443 0.022145 0.022346
0.0225471 0.0227485 0.0229501 0.0231519 0.023354 0.0235562 0.0237587 0.0239615 0.0241645 0.0243677
0.0245712 0.0247749 0.0249789 0.0251832 0.0253877 0.0255924 0.0257975 0.0260028 0.0262084 0.0264143
0.0266205 0.026827 0.0270338 0.0272408 0.0274483 0.027656 0.027864 0.0280724 0.0282811 0.0284902
0.0286997 0.0289095 0.0291196 0.0293302 0.0295411 0.0297525 0.0299642 0.0299698 0.0299753 0.0299808
0.0299863 0.0299919 0.0301985 0.0304057 0.0306132 0.0308212 0.0310296 0.0312441 0.031459 0.0316745
0.0318904 0.032107 0.032324 0.0325416 0.0327598 0.0329786 0.033198 0.033418 0.0336387 0.0338601
0.0340821 0.0343049 0.0345284 0.0347527 0.0349777 0.0352036 0.0354303 0.0356578 0.0358863 0.0361157
0.036346 0.0365773 0.0368096 0.037043 0.0372776 0.0375133 0.0377501 0.0379881 0.0382274 0.0384681
0.0387101 0.0389536 0.0391985 0.039445 0.0396933 0.0399433 0.0401949 0.0404482 0.0407035 0.0409609
0.0412204 0.041482 0.0417457 0.042012 0.042281 0.0425527 0.0428271 0.0431048 0.0433857 0.04367
0.0439577 0.0442491 0.0444253 0.044603 0.0447822 0.044963 0.0450602 0.0452005 0.0453417 0.0454838
0.0456268 0.045771 0.0460866 0.046407 0.0467322 0.0470623 0.0474029 0.0476295 0.0478589 0.0480907
0.0483244 0.0483951 0.0485549 0.0487155 0.0488768 0.0490389 0.049206 0.049562 0.049921 0.0502823
0.0506422 0.050718 0.050806 0.0508937 0.0509813 0.0510687 0.0511586 0.0513932 0.0516248 0.0518535
0.0520789 0.0522147 0.0523992 0.0525809 0.0527596 0.0529356 0.0531207 0.0531672 0.0532136 0.0532597
0.0533055 0.0533489 0.0535506 0.0537464 0.0539373 0.0541234 0.054295 0.0544112 0.0545258 0.0546385