# vtk DataFile Version 2.0
tracks
ASCII
DATASET POLYDATA
POINTS 19380 float
-1.001 1e-07 0.0011 -0.99955 9.08404e-08 0.00109978 -0.9981 8.68271e-08 0.00109951 -0.99665 8.79599e-08
0.00109921 -0.9952 9.42385e-08 0.00109886 -0.99375 1.05663e-07 0.00109847 -0.99 1.485e-07 0.00109736
-0.98625 1.9133e-07 0.00109625 -0.9825 2.34127e-07 0.00109514 -0.97875 2.94879e-07 0.00109387 -0.975
3.91552e-07 0.00109228 -0.97125 5.24007e-07 0.00109037 -0.9675 6.56347e-07 0.00108847 -0.96375 7.88483e-07
0.00108657 -0.96 9.25474e-07 0.00108467 -0.95625 1.07277e-06 0.00108278 -0.9525 1.23026e-06 0.00108089
-0.94875 1.38761e-06 0.001079 -0.945 1.54472e-06 0.00107712 -0.94125 1.72702e-06 0.00107533 -0.9375
1.96443e-06 0.00107371 -0.93375 2.25656e-06 0.00107228 -0.93 2.54872e-06 0.00107085 -0.92625 2.84053e-06
0.00106942 -0.9225 3.1513e-06 0.00106808 -0.91875 3.50544e-06 0.00106694 -0.915 3.90239e-06 0.00106598
-0.91125 4.29954e-06 0.00106503 -0.9075 4.69639e-06 0.00106408 -0.90375 5.04781e-06 0.0010632 -0.9
5.29368e-06 0.00106249 -0.89625 5.43322e-06 0.00106196 -0.8925 5.36414e-06 0.00106157 -0.88875 5.08566e-06
0.00106134 -0.885 4.71883e-06 0.00106117 -0.88125 4.35202e-06 0.00106101 -0.8775 3.98499e-06 0.00106084
-0.87375 3.48559e-06 0.00106074 -0.87 2.85418e-06 0.00106071 -0.86625 2.1673e-06 0.00106072 -0.8625
1.48043e-06 0.00106072 -0.860883 1.18435e-06 0.00106072 -0.859266 8.79149e-07 0.00106073 -0.857649 5.64955e-07
0.00106073 -0.856032 2.41764e-07 0.00106073 -0.854856 1.71115e-17 0.00106073 -0.852634 -4.65331e-07 0.00106073
-0.850413 -9.41687e-07 0.00106074 -0.848192 -1.4181e-06 0.00106074 -0.845971 -1.89458e-06 0.00106074 -0.84375
-2.37111e-06 0.00106074 -0.84 -3.17545e-06 0.00106075 -0.83625 -3.99826e-06 0.00106076 -0.8325 -4.83913e-06
0.00106079 -0.82875 -5.68775e-06 0.00106082 -0.825 -6.53661e-06 0.00106086 -0.82125 -7.38407e-06 0.00106089
-0.8175 -8.31003e-06 0.00106095 -0.81375 -9.31292e-06 0.00106104 -0.81 -1.03484e-05 0.00106113 -0.80625
-1.13843e-05 0.00106123 -0.8025 -1.24176e-05 0.00106133 -0.79875 -1.35685e-05 0.00106143 -0.795 -1.48332e-05
0.00106154 -0.79125 -1.61463e-05 0.00106165 -0.7875 -1.746e-05 0.00106176 -0.78375 -1.87705e-05 0.00106187
-0.78 -2.01444e-05 0.00106199 -0.77625 -2.15764e-05 0.00106212 -0.7725 -2.30337e-05 0.00106225 -0.76875
-2.44917e-05 0.00106238 -0.765 -2.59443e-05 0.00106252 -0.76125 -2.74208e-05 0.00106269 -0.7575 -2.89128e-05
0.00106289 -0.75375 -3.0412e-05 0.00106312 -0.75 -3.19123e-05 0.00106335 -0.74625 -3.3397e-05 0.00106358
-0.7425 -3.48756e-05 0.00106385 -0.73875 -3.63297e-05 0.00106418 -0.735 -3.77741e-05 0.00106454 -0.73125
-3.92199e-05 0.00106489 -0.7275 -4.06442e-05 0.00106525 -0.72375 -4.20397e-05 0.00106562 -0.72 -4.33829e-05
0.00106602 -0.71625 -4.47041e-05 0.00106643 -0.7125 -4.60266e-05 0.00106684 -0.70875 -4.73227e-05 0.00106726
-0.705 -4.85781e-05 0.00106764 -0.70125 -4.97686e-05 0.00106801 -0.6975 -5.09313e-05 0.00106837 -0.69375
-5.20949e-05 0.00106872 -0.69 -5.32481e-05 0.00106908 -0.68625 -5.43106e-05 0.00106941 -0.6825 -5.52656e-05
0.0010697 -0.67875 -5.61739e-05 0.00106997 -0.675 -5.70829e-05 0.00107025 -0.67125 -5.79777e-05 0.00107053
-0.6675 -5.87715e-05 0.00107081 -0.66375 -5.94536e-05 0.00107111 -0.66 -6.00863e-05 0.0010714 -0.65625
-6.07195e-05 0.0010717 -0.6525 -6.13201e-05 0.00107201 -0.64875 -6.19014e-05 0.00107234 -0.645 -6.24371e-05
0.00107271 -0.64125 -6.29527e-05 0.0010731 -0.6375 -6.34686e-05 0.00107348 -0.63375 -6.39777e-05 0.00107387
-0.63 -6.44392e-05 0.00107428 -0.62625 -6.48487e-05 0.00107469 -0.6225 -6.52347e-05 0.00107512 -0.61875
-6.56211e-05 0.00107554 -0.615 -6.60023e-05 0.00107598 -0.61125 -6.63147e-05 0.00107642 -0.6075 -6.65581e-05
0.00107689 -0.60375 -6.67702e-05 0.00107737 -0.6 -6.69824e-05 0.00107786 -0.59625 -6.71984e-05 0.00107834
-0.5925 -6.74183e-05 0.00107883 -0.58875 -6.76384e-05 0.00107931 -0.585 -6.78513e-05 0.00107982 -0.58125
-6.80484e-05 0.00108039 -0.5775 -6.82019e-05 0.00108103 -0.57375 -6.83915e-05 0.00108166 -0.57 -6.85813e-05
0.00108229 -0.56625 -6.87868e-05 0.00108294 -0.5625 -6.90256e-05 0.00108362 -0.55875 -6.92612e-05 0.00108435
-0.555 -6.95387e-05 0.00108507 -0.55125 -6.98166e-05 0.00108579 -0.5475 -7.01088e-05 0.0010865 -0.54375
-7.04309e-05 0.00108719 -0.54 -7.07835e-05 0.00108788 -0.53625 -7.11436e-05 0.00108855 -0.5325 -7.15042e-05
0.00108923 -0.52875 -7.1855e-05 0.0010899 -0.525 -7.21851e-05 0.00109055 -0.52125 -7.24429e-05 0.00109119
-0.5175 -7.27599e-05 0.00109183 -0.51375 -7.30773e-05 0.00109247 -0.51 -7.33767e-05 0.00109311 -0.50625
-7.36392e-05 0.00109377 -0.5025 -7.38045e-05 0.00109446 -0.49875 -7.4035e-05 0.00109514 -0.495 -7.42658e-05
0.00109582 -0.49125 -7.45002e-05 0.00109651 -0.4875 -7.47414e-05 0.00109722 -0.48375 -7.49896e-05 0.00109798
-0.48 -7.52429e-05 0.00109871 -0.47625 -7.54965e-05 0.00109945 -0.4725 -7.57859e-05 0.00110019 -0.46875
-7.61457e-05 0.00110091 -0.465 -7.65783e-05 0.00110165 -0.46125 -7.70258e-05 0.00110237 -0.4575 -7.7474e-05
0.00110308 -0.45375 -7.79347e-05 0.00110382 -0.45 -7.84188e-05 0.00110458 -0.44625 -7.89215e-05 0.00110539
-0.4425 -7.94374e-05 0.00110618 -0.43875 -7.99542e-05 0.00110697 -0.435 -8.04384e-05 0.00110782 -0.43125
-8.08594e-05 0.00110878 -0.4275 -8.11139e-05 0.00110987 -0.42375 -8.14697e-05 0.00111094 -0.42 -8.18262e-05
0.00111202 -0.41625 -8.21752e-05 0.00111313 -0.4125 -8.25098e-05 0.00111431 -0.40875 -8.27265e-05 0.00111557
-0.405 -8.30501e-05 0.00111681 -0.40125 -8.33745e-05 0.00111805 -0.3975 -8.37355e-05 0.00111925 -0.39375
-8.41632e-05 0.00112037 -0.39 -8.46748e-05 0.00112143 -0.38625 -8.51964e-05 0.00112246 -0.3825 -8.57192e-05
0.0011235 -0.37875 -8.62616e-05 0.00112446 -0.375 -8.68378e-05 0.00112527 -0.37125 -8.74642e-05 0.00112597
-0.3675 -8.8112e-05 0.00112663 -0.36375 -8.87614e-05 0.0011273 -0.36 -8.93804e-05 0.00112794 -0.35625
-8.99447e-05 0.00112852 -0.3525 -9.02699e-05 0.00112907 -0.34875 -9.07957e-05 0.00112959 -0.345 -9.1323e-05
0.00113012 -0.34125 -9.18079e-05 0.00113065 -0.3375 -9.22183e-05 0.0011312 -0.33375 -9.25685e-05 0.0011318
-0.33 -9.29189e-05 0.00113237 -0.32625 -9.32703e-05 0.00113293 -0.3225 -9.36249e-05 0.00113345 -0.31875
-9.39846e-05 0.00113388 -0.315 -9.43815e-05 0.00113425 -0.31125 -9.4794e-05 0.0011346 -0.3075 -9.52078e-05
0.00113494 -0.30375 -9.56527e-05 0.00113519 -0.3 -9.61502e-05 0.0011353 -0.29625 -9.64179e-05 0.00113528
-0.2925 -9.69286e-05 0.00113513 -0.28875 -9.73459e-05 0.00113486 -0.285 -9.77083e-05 0.00113451 -0.28125
-9.80719e-05 0.00113417 -0.2775 -9.80909e-05 0.00113385 -0.27375 -9.831e-05 0.00113319 -0.27 -9.8365e-05
0.00113221 -0.26625 -9.83234e-05 0.00113104 -0.2625 -9.82821e-05 0.00112986 -0.25875 -9.78735e-05 0.00112869
-0.255 -9.77485e-05 0.00112689 -0.25125 -9.74991e-05 0.00112444 -0.2475 -9.71788e-05 0.00112162 -0.24375
-9.68591e-05 0.00111881 -0.24 -9.66005e-05 0.00111601 -0.23625 -9.63775e-05 0.00111236 -0.2325 -9.61984e-05
0.00110783 -0.22875 -9.60441e-05 0.00110283 -0.225 -9.58919e-05 0.00109787 -0.22125 -9.52838e-05 0.0010929
-0.2175 -9.54585e-05 0.00108672 -0.21375 -9.58695e-05 0.00107928 -0.21 -9.63944e-05 0.00107128 -0.20625
-9.69218e-05 0.00106335 -0.2025 -9.68894e-05 0.00105543 -0.19875 -9.75909e-05 0.00104584 -0.195 -9.83986e-05
0.00103449 -0.19125 -9.92473e-05 0.00102258 -0.1875 -0.000100098 0.00101083 -0.18375 -0.000100969 0.000999148
-0.18 -0.000101748 0.000985319 -0.17625 -0.000102422 0.00096925 -0.1725 -0.000103073 0.000952897 -0.16875
-0.000103728 0.000936866 -0.165 -0.000104426 0.000921029 -0.16125 -0.000104984 0.000902876 -0.1575 -0.000105387
0.000882311 -0.15375 -0.00010579 0.000862122 -0.15 -0.000106202 0.000842462 -0.14625 -0.000106674 0.000823154
-0.1425 -0.000107084 0.000801546 -0.13875 -0.000107436 0.000778005 -0.135 -0.000107803 0.000755236 -0.13125
-0.000108184 0.000733211 -0.1275 -0.000107769 0.000711645 -0.12375 -0.000108155 0.000687455 -0.12 -0.000108546
0.000661957 -0.11625 -0.000108954 0.000637489 -0.1125 -0.000109378 0.000614005 -0.10875 -0.000109019 0.000591056
-0.105 -0.000109443 0.000565933 -0.10125 -0.000109885 0.000540758 -0.0975 -0.000110343 0.000516773 -0.0937499
-0.000110816 0.000493917 -0.0899999 -0.000111359 0.0004716 -0.0862499 -0.000111881 0.000448776 -0.0824999 -0.000112418
0.000426948 -0.0787499 -0.000112968 0.00040623 -0.0749999 -0.00011353 0.000386563 -0.0712499 -0.000114167 0.00036722
-0.0674999 -0.000114771 0.000349823 -0.0637498 -0.000115386 0.000333278 -0.0599998 -0.000116011 0.000317543 -0.0562499
-0.000116646 0.00030258 -0.0524999 -0.000116536 0.000287673 -0.0487498 -0.000117177 0.000276489 -0.0449998 -0.000117827
0.00026576 -0.0412498 -0.000118485 0.000255466 -0.0374998 -0.000119152 0.000245592 -0.0337498 -0.000119866 0.000235483
-0.0299998 -0.000120557 0.000229627 -0.0262498 -0.000121255 0.000223932 -0.0224998 -0.00012196 0.000218395 -0.0187499
-0.000122671 0.00021301 -0.0149999 -0.000123363 0.000207144 -0.0112499 -0.000123959 0.000204499 -0.00749991 -0.000124559
0.000201899 -0.00374992 -0.000125163 0.000199345 6.12235e-08 -0.000125771 0.000196834 0.00375005 -0.000125711 0.000193634
0.00750005 -0.00012623 0.000191308 0.01125 -0.000126753 0.000189021 0.015 -0.00012728 0.000186775 0.01875
-0.000127809 0.000184568 0.0225 -0.000127745 0.00018249 0.02625 -0.000128191 0.000181062 0.03 -0.000128639
0.000179652 0.03375 -0.00012909 0.00017826 0.0375 -0.000129543 0.000176885 0.04125 -0.000129465 0.000175286
0.045 -0.000129818 0.000174091 0.04875 -0.000130174 0.000172908 0.0525 -0.000130531 0.000171736 0.05625
-0.000130891 0.000170575 0.06 -0.000131302 0.000169486 0.06375 -0.000131613 0.000168641 0.0675 -0.000131925
0.000167802 0.07125 -0.000132238 0.000166968 0.075 -0.000132553 0.000166141 0.07875 -0.000132549 0.000165678
0.0825 -0.00013286 0.000165357 0.08625 -0.000133171 0.000165038 0.09 -0.000133482 0.000164719 0.09375
-0.000133795 0.000164402 0.0975 -0.00013382 0.000164267 0.10125 -0.000134153 0.000164189 0.105 -0.000134488
0.000164112 0.10875 -0.000134823 0.000164034 0.1125 -0.000135159 0.000163957 0.11625 -0.000135541 0.000163814
[...]
POINT_DATA 19380
FIELD attributes 3
age 1 19380 float
0 7.34669e-05 0.000146934 0.000220403 0.000293872 0.000367341 0.00055735 0.000747356 0.000937359 0.00112735 0.0013173
0.00150723 0.00169715 0.00188707 0.00207696 0.00226679 0.00245657 0.00264635 0.00283612 0.00302588 0.00321562
0.00340535 0.00359507 0.0037848 0.00397452 0.00416425 0.00435398 0.00454372 0.00473345 0.00492319 0.00511293
0.00530268 0.00549245 0.00568225 0.00587205 0.00606185 0.00625165 0.0064415 0.00663141 0.00682134 0.00701127
0.00709316 0.00717506 0.00725698 0.00733891 0.00739854 0.00751112 0.00762371 0.0077363 0.00784889 0.00796148
0.00815157 0.00834172 0.00853193 0.00872217 0.00891241 0.00910265 0.00929295 0.00948332 0.00967372 0.00986412
0.0100545 0.010245 0.0104355 0.0106261 0.0108167 0.0110072 0.0111979 0.0113886 0.0115793 0.01177
0.0119607 0.0121515 0.0123423 0.0125331 0.012724 0.0129148 0.0131058 0.0132968 0.0134878 0.0136788
0.0138698 0.014061 0.0142522 0.0144435 0.0146348 0.014826 0.0150174 0.0152088 0.0154003 0.0155918
0.0157833 0.0159748 0.0161665 0.0163581 0.0165498 0.0167414 0.0169332 0.017125 0.0173169 0.0175089
0.0177007 0.0178928 0.018085 0.0182773 0.0184695 0.0186617 0.0188541 0.0190467 0.0192392 0.0194318
0.0196244 0.0198171 0.0200099 0.0202029 0.0203958 0.0205886 0.0207815 0.0209744 0.0211674 0.0213606
0.0215539 0.0217472 0.0219406 0.0221341 0.0223278 0.0225217 0.0227156 0.0229096 0.0231037 0.0232981
0.0234927 0.0236874 0.0238821 0.0240769 0.0242719 0.0244672 0.0246625 0.0248579 0.0250534 0.0252492
0.0254451 0.0256412 0.0258374 0.0260336 0.0262302 0.026427 0.026624 0.0268209 0.027018 0.0272154
0.027413 0.0276108 0.0278086 0.0280065 0.0282047 0.028403 0.0286015 0.0288001 0.0289988 0.0291978
0.0293971 0.0295965 0.0297959 0.0299956 0.0301958 0.0303964 0.0305971 0.0307979 0.030999 0.0312006
0.0314027 0.031605 0.0318073 0.0320099 0.0322131 0.0324166 0.0326203 0.0328241 0.0330282 0.0332329
0.0334379 0.0336432 0.0338485 0.0340542 0.0342606 0.0344674 0.0346746 0.0348818 0.0350894 0.0352977
0.0355063 0.0357154 0.0359245 0.036134 0.0363441 0.0365546 0.0367663 0.0369788 0.0371918 0.0374048
0.0376173 0.0378313 0.0380463 0.0382618 0.0384773 0.0386923 0.0389088 0.0391263 0.0393444 0.0395623
0.0397796 0.0399984 0.040218 0.0404379 0.0406576 0.0408766 0.0410969 0.0413177 0.0415387 0.0417593
0.0419791 0.0421997 0.0424205 0.042641 0.0428612 0.0430802 0.0432994 0.043518 0.043736 0.0439535
0.0441696 0.0443851 0.0445992 0.0448125 0.0450252 0.0452366 0.0454465 0.0456545 0.0458619 0.0460686
0.0462741 0.0464775 0.0466791 0.0468801 0.0470806 0.0472801 0.0474767 0.0476719 0.0478667 0.0480612
0.0482551 0.0484451 0.0486348 0.0488244 0.0490139 0.0492031 0.0493887 0.0495745 0.0497603 0.0499462
0.0501322 0.0503155 0.0504989 0.0506826 0.0508663 0.0510504 0.0512327 0.0514152 0.0515978 0.0517805
0.0519637 0.0521458 0.052328 0.0525102 0.0526925 0.0528754 0.0530578 0.0532402 0.0534226 0.0536051
0.0537881 0.0539705 0.0541529 0.0543353 0.0545178 0.0547008 0.0548833 0.0550658 0.0552483 0.0554309
0.0556141 0.0557967 0.0559794 0.0561621 0.0563448 0.0565282 0.056711 0.0568938 0.0570767 0.0572595
0.0574431 0.0576262 0.0578092 0.0579923 0.0581753 0.0583591 0.0585424 0.0587257 0.0589089 0.0590922
0.0592762 0.0594598 0.0596433 0.0598269 0.0600104 0.0601948 0.0603787 0.0605626 0.0607465 0.0609304
0.061115 0.0612993 0.0614835 0.0616677 0.061852 0.0620368 0.0622212 0.0624056 0.0625901 0.0627745
0.0629595 0.0631441 0.0633287 0.0635133 0.0636979 0.063883 0.0640679 0.0642527 0.0644375 0.0646223
0.0648077 0.0649928 0.0651779 0.0653629 0.065548 0.0657336 0.0659189 0.0661041 0.0662894 0.0664747
0.0666604 0.0668459 0.0670314 0.0672168 0.0674023 0.0675882 0.067774 0.0679598 0.0681456 0.0683314
0.0685175 0.0687034 0.0688893 0.0690752 0.0692611 0.0694473 0.0696333 0.0698194 0.0700054 0.0701914
0.0703777 0.0705638 0.07075 0.0709361 0.0711223 0.0713086 0.0714949 0.0716811 0.0718673 0.0720536
0.07224 0.0724263 0.0726126 0.0727988 0.0729851 0.0731715 0.0733578 0.0735441 0.0737304 0.0739167
0.0741031 0.0742894 0.0744757 0.074662 0.0748483 0.0750347 0.075221 0.0754072 0.0755935 0.0757797
0.0759661 0.0761523 0.0763385 0.0765247 0.0767109 0.0768972 0.0770833 0.0772694 0.0774555 0.0776416
0.0778279 0.0780139 0.0781999 0.0783859 0.078572 0.0787582 0.0789441 0.0791301 0.0793161 0.079502
0.0796882 0.0798741 0.08006 0.0802458 0.0804317 0.0806178 0.0808036 0.0809894 0.0811751 0.0813609
0.0815469 0.0817327 0.0819184 0.0821042 0.0822899 0.0824759 0.0826616 0.0828473 0.0830331 0.0832188
0.0834047 0.0835904 0.0837761 0.0839618 0.0841474 0.0843333 0.0845189 0.0847045 0.0848901 0.0850758
0.0852616 0.0854471 0.0856327 0.0858183 0.0860038 0.0861896 0.0863752 0.0865607 0.0867462 0.0869318
0.0871176 0.087303 0.0874885 0.087674 0.0878595 0.0880452 0.0882306 0.088416 0.0886014 0.0887869
0.0889725 0.0891578 0.0893432 0.0895285 0.0897138 0.0898994 0.0900847 0.09027 0.0904553 0.0906405
0.0908261 0.0910113 0.0911965 0.0913817 0.091567 0.0917524 0.0919374 0.0921225 0.0923075 0.0924926
0.0926778 0.0928627 0.0930475 0.0932324 0.0934172 0.0936023 0.093787 0.0939717 0.0941564 0.0943411
0.0945261 0.0947106 0.0948951 0.0950797 0.0952642 0.0954489 0.0956332 0.0958175 0.0960018 0.0961861
0.0963706 0.0965546 0.0967387 0.0969227 0.0971067 0.097291 0.0974747 0.0976584 0.0978421 0.0980258
0.0982099 0.0983936 0.0985772 0.0987608 0.0989443 0.0991283 0.0993123 0.0994963 0.0996802 0.099864
0.100048 0.100234 0.100419 0.100604 0.100789 0.100974 0.101161 0.101348 0.101535 0.101722
0.10191 0.102099 0.102287 0.102476 0.102665 0.102855 0.103046 0.103237 0.103428 0.10362
0.103811 0.104005 0.104199 0.104393 0.104587 0.104781 0.104977 0.105173 0.10537 0.105566
0.105762 0.10596 0.106158 0.106356 0.106554 0.106752 0.10695 0.107149 0.107348 0.107546
0.107744 0.107943 0.108141 0.10834 0.108539 0.108737 0.108935 0.109133 0.10933 0.109528
0.109726 0.109923 0.11012 0.110317 0.110515 0.110711 0.110908 0.111104 0.1113 0.111497
0.111693 0.111888 0.112084 0.112279 0.112475 0.11267 0.112865 0.113061 0.113256 0.113452
0.113646 0.113841 0.114036 0.11423 0.114425 0.114619 0.114813 0.115008 0.115202 0.115396
0.11559 0.115783 0.115977 0.116171 0.116365 0.116558 0.116751 0.116944 0.117137 0.11733
0.117523 0.117715 0.117908 0.1181 0.118293 0.118485 0.118677 0.118869 0.119062 0.119254
0.119445 0.119637 0.119829 0.120021 0.120212 0.120403 0.120595 0.120786 0.120977 0.121168
0.121359 0.12155 0.121741 0.121932 0.122123 0.122313 0.122504 0.122694 0.122885 0.123076
0.123266 0.123456 0.123647 0.123837 0.124028 0.124218 0.124408 0.124598 0.124788 0.124979
0.125168 0.125358 0.125548 0.125738 0.125928 0.126118 0.126308 0.126497 0.126687 0.126877
0.127066 0.127256 0.127446 0.127635 0.127825 0.128014 0.128203 0.128393 0.128582 0.128771
0.12896 0.129149 0.129339 0.129528 0.129717 0.129906 0.130095 0.130284 0.130473 0.130662
0.130851 0.13104 0.131229 0.131418 0.131607 0.131796 0.131985 0.132174 0.132363 0.132551
0.13274 0.132929 0.133118 0.133307 0.133495 0.133684 0.133873 0.134062 0.13425 0.134439
0.134628 0.134816 0.135005 0.135193 0.135382 0.135571 0.135759 0.135948 0.136136 0.136325
0.136513 0.136702 0.13689 0.137079 0.137267 0.137456 0.137644 0.137832 0.138021 0.138209
0.138398 0.138586 0.138774 0.138963 0.139151 0.139339 0.139528 0.139716 0.139904 0.140093
0.140281 0.140469 0.140658 0.140846 0.141034 0.141222 0.141411 0.141599 0.141787 0.141975
0.142164 0.142352 0.14254 0.142728 0.142916 0.143105 0.143293 0.143481 0.143669 0.143857
0.144046 0.144234 0.144422 0.14461 0.144798 0.144986 0.145175 0.145363 0.145551 0.145739
0.145927 0.146115 0.146304 0.146492 0.14668 0.146868 0.147056 0.147244 0.147432 0.147621
0.147809 0.147997 0.148185 0.148373 0.148561 0.148749 0.148937 0.149125 0.149313 0.149502
0.14969 0.149878 0.150066 0.150254 0.150442 0.15063 0.150818 0.151006 0.151194 0.151382
0.15157 0.151758 0.151946 0.152134 0.152322 0.152697 0.153073 0.153449 0.153825 0.154201
0.154952 0.155703 0.156454 0.157205 0.157956 0.159457 0.160958 0.162458 0.163959 0.16546
0.166961 0.168461 0.169962 0.171463 0.172964 0.175965 0.178966 0.181968 0.184969 0.187971
0.193972 0.199973 0.205975 0.211976 0.217978 0.223978 0.229979 0.23598 0.24198 0.247981
0.253982 0.259982 0.265983 0.271983 0.277984 0.283985 0.289985 0.295986 0.301986 0.307987
0.313987 0.319988 0.325989 0.331989 0.33799 0.34399 0.349991 0.355991 0.361992 0.367992
0.373993 0.379993 0.385994 0.391994 0.397995 0.403995 0.410003 0.41602 0.422044 0.428076
0 7.47334e-05 0.000149472 0.000224215 0.000298964 0.000373718 0.000567059 0.000760446 0.000953883 0.00114737
0.00134091 0.00153449 0.00172812 0.00192179 0.0021155 0.00230925 0.00250304 0.00269688 0.00289076 0.00308468
0.00327865 0.00347267 0.00366671 0.00386079 0.0040549 0.00424905 0.00444323 0.00463744 0.00483168 0.00502595
0.00522025 0.00541458 0.00560894 0.00580335 0.00599778 0.00619226 0.00635373 0.00651524 0.00667677 0.00683834
0.00690669 0.0069584 0.00701012 0.00706184 0.00711357 0.0071653 0.00736003 0.00755481 0.00774965 0.00794453
0.00813946 0.00833445 0.00852949 0.00872458 0.00891974 0.00911494 0.00931021 0.00950554 0.00970093 0.00989639
0.0100919 0.0102875 0.0104831 0.0106788 0.0108746 0.0110705 0.0112664 0.0114623 0.0116584 0.0118545
0.0120506 0.0122468 0.0124431 0.0126395 0.012836 0.0130325 0.0132291 0.0134258 0.0136225 0.0138194
0.0140163 0.0142133 0.0144105 0.0146077 0.014805 0.0150024 0.0151999 0.0153975 0.0155952 0.015793
0.0159908 0.0161888 0.0163869 0.0165851 0.0167834 0.0169818 0.0171803 0.017379 0.0175778 0.0177767
0.0179757 0.0181748 0.0183741 0.0185736 0.0187731 0.0189729 0.0191727 0.0193727 0.0195729 0.0197732
0.0199737 0.0201743 0.0203751 0.020576 0.0207771 0.0209784 0.0211799 0.0213815 0.0215834 0.0217854
0.0219877 0.0221901 0.0223928 0.0225957 0.0227988 0.0230022 0.0232057 0.0234096 0.0236136 0.0238179
0.0240225 0.0242273 0.0244324 0.0246377 0.0248433 0.0250492 0.0252554 0.0254618 0.0256686 0.0258757
0.0260831 0.0262908 0.0264988 0.0267072 0.0269159 0.0271249 0.0273343 0.027544 0.027754 0.0279645
0.0281752 0.0283864 0.0285979 0.0288098 0.0290221 0.0292348 0.029448 0.0296615 0.0298755 0.03009
0.030305 0.0305204 0.0307364 0.0309529 0.0311699 0.0313875 0.0316056 0.0318243 0.0320436 0.0322635
0.0324841 0.0327052 0.0329269 0.0331493 0.0333724 0.0335961 0.0338205 0.0340457 0.0342716 0.0344983
0.0347257 0.034954 0.0351831 0.0354131 0.0356439 0.0358756 0.0361083 0.0363418 0.0365763 0.0368118
0.0370482 0.0372857 0.0375242 0.0377639 0.0380046 0.0382465 0.0384895 0.0387337 0.0389792 0.039226
0.0394742 0.0397237 0.0399747 0.0402272 0.0404812 0.0407367 0.0409937 0.0412523 0.0415124 0.0417743
0.0420378 0.0423031 0.0425701 0.0428389 0.0431095 0.043382 0.0436562 0.043932 0.0442094 0.0444887
0.0447704 0.0450537 0.0453385 0.0456249 0.0459125 0.0462031 0.0464941 0.0467858 0.0470783 0.0473714
0.0476066 0.0476189 0.0476312 0.0476436 0.0476559 0.0476683 0.0479641 0.0482596 0.0485546 0.0488491
0.049148 0.0494436 0.049737 0.0500281 0.0503162 0.0505895 0.0505934 0.0505972 0.050601 0.0506049
0.0506087 0.0508947 0.0511763 0.0514534 0.0517263 0.0520005 0.0521209 0.0522399 0.0523577 0.0524742
0.0525858 0.0527248 0.0528622 0.0529979 0.053132 0.0532648 0.0534414 0.0536145 0.0537841 0.0539505
0.0541433 0.054192 0.0542405 0.0542887 0.0543366 0.0543841 0.0545919 0.0547943 0.0549917 0.0551843
0.055367 0.0554494 0.055531 0.0556119 0.055692 0.0558024 0.055889 0.0559746 0.0560594 0.0561433
0.0562256 0.0563882 0.0565488 0.0567072 0.0568637 0.0570156 0.0571666 0.0573165 0.0574655 0.0576134
0.0577597 0.0579055 0.058051 0.0581963 0.0583413 0.0584855 0.0586296 0.0587735 0.0589173 0.0590608
0.0592041 0.0593474 0.0594907 0.0596339 0.0597772 0.0599204 0.0600636 0.060207 0.0603505 0.0604942
0.060638 0.0607819 0.0609261 0.0610705 0.0612151 0.0613599 0.061505 0.0616503 0.0617959 0.0619418
0.062088 0.0622344 0.0623812 0.0625284 0.062676 0.0628239 0.0629722 0.063121 0.0632703 0.06342
0.0635702 0.0637208 0.0638719 0.0640234 0.0641754 0.0643279 0.0644808 0.064634 0.0647877 0.0649417
0.065096 0.0652508 0.0654059 0.0655615 0.0657174 0.0658737 0.0660305 0.0661877 0.0663454 0.0665035
0.0666621 0.0668212 0.0669808 0.0671408 0.0673012 0.0674621 0.0676235 0.0677852 0.0679474 0.06811
0.0682729 0.0684363 0.0686 0.0687642 0.0689287 0.0690936 0.0692589 0.0694246 0.0695906 0.0697571
0.0699239 0.0700911 0.0702586 0.0704264 0.0705945 0.0707629 0.0709316 0.0711006 0.0712698 0.0714392
0.0716088 0.0717787 0.0719488 0.0721191 0.0722896 0.0724604 0.0726313 0.0728025 0.0729739 0.0731455
0.0733173 0.0734893 0.0736614 0.0738337 0.074006 0.0741785 0.0743512 0.0745238 0.0746965 0.0748693
0.0750421 0.0752149 0.0753878 0.0755607 0.0757335 0.0759064 0.0760794 0.0762523 0.0764251 0.076598
0.0767708 0.0769437 0.0771164 0.0772891 0.0774616 0.0776341 0.0778065 0.0779787 0.0781508 0.0783228
0.0784946 0.0786662 0.0788377 0.0790091 0.0791802 0.0793513 0.0795221 0.0796928 0.0798634 0.0800338
0.080204 0.0803741 0.080544 0.0807137 0.0808831 0.0810524 0.0812215 0.0813903 0.0815589 0.0817273
0.0818954 0.0820634 0.0822311 0.0823987 0.0825661 0.0827334 0.0829005 0.0830674 0.0832343 0.0834011
0.0835677 0.0837343 0.0839008 0.0840672 0.0842336 0.0843998 0.084566 0.0847322 0.0848982 0.0850642
0.0852302 0.085396 0.0855619 0.0857277 0.0858935 0.0860593 0.086225 0.0863908 0.0865565 0.0867223
0.086888 0.0870538 0.0872195 0.0873852 0.0875508 0.0877164 0.087882 0.0880475 0.0882128 0.0883781
0.0885433 0.0887084 0.0888734 0.0890382 0.089203 0.0893676 0.0895322 0.0896966 0.0898609 0.0900251
0.0901892 0.0903531 0.0905169 0.0906805 0.0908439 0.0910071 0.0911702 0.0913329 0.0914953 0.0916575
0.0918193 0.0919808 0.092142 0.0923029 0.0924635 0.0926238 0.0927837 0.0929434 0.0931027 0.0932618
0.0934205 0.093579 0.0937371 0.0938949 0.0940523 0.0942093 0.094366 0.0945222 0.094678 0.0948334
0.0949884 0.0951429 0.095297 0.0954506 0.0956038 0.0957565 0.0959088 0.0960607 0.0962121 0.0963631
0.0965137 0.0966639 0.0968137 0.096963 0.097112 0.0972606 0.0974088 0.0975569 0.0977049 0.0978527
0.0980005 0.0981485 0.0982971 0.0984465 0.0985967 0.0987482 0.0988996 0.0990529 0.0992082 0.0993656
0.0995262 0.0996889 0.0998549 0.100024 0.100197 0.100375 0.100535 0.100699 0.100865 0.101035
0.101155 0.101188 0.101222 0.101256 0.10129 0.101325 0.101528 0.101736 0.101949 0.102167
0.102392 0.102621 0.102855 0.103094 0.103337 0.103584 0.103668 0.103752 0.103836 0.103921
0.104017 0.104188 0.10436 0.104533 0.104708 0.104883 0.105151 0.105421 0.105692 0.105965
0.106236 0.10651 0.106783 0.107055 0.107328 0.107599 0.107871 0.108142 0.108412 0.108681
0.108949 0.109215 0.10948 0.109744 0.110007 0.110268 0.110528 0.110787 0.111045 0.111301
0.111556 0.111809 0.112061 0.112312 0.112561 0.112809 0.113056 0.113302 0.113546 0.113789
0.114031 0.114272 0.114512 0.114751 0.114988 0.115225 0.115461 0.115696 0.11593 0.116163
0.116395 0.116626 0.116857 0.117087 0.117315 0.117543 0.11777 0.117997 0.118222 0.118447
0.118671 0.118895 0.119117 0.119339 0.119561 0.119781 0.120001 0.120221 0.12044 0.120658
0.120876 0.121093 0.121309 0.121525 0.121741 0.121956 0.12217 0.122384 0.122597 0.12281
0.123023 0.123235 0.123446 0.123657 0.123868 0.124078 0.124288 0.124497 0.124707 0.124915
0.125124 0.125332 0.12554 0.125747 0.125954 0.126161 0.126367 0.126574 0.12678 0.126985
0.12719 0.127395 0.1276 0.127805 0.128009 0.128213 0.128417 0.12862 0.128823 0.129026
0.129229 0.129432 0.129634 0.129836 0.130038 0.13024 0.130441 0.130643 0.130844 0.131044
0.131245 0.131446 0.131646 0.131846 0.132046 0.132246 0.132445 0.132645 0.132844 0.133043
0.133242 0.133441 0.13364 0.133839 0.134037 0.134236 0.134434 0.134632 0.13483 0.135028
0.135226 0.135423 0.135621 0.135818 0.136015 0.136212 0.136409 0.136606 0.136803 0.137
0.137197 0.137393 0.13759 0.137786 0.137982 0.138178 0.138374 0.13857 0.138766 0.138961
0.139157 0.139353 0.139548 0.139743 0.139939 0.140134 0.140329 0.140524 0.140719 0.140914
0.141109 0.141303 0.141498 0.141693 0.141887 0.142082 0.142276 0.142471 0.142665 0.142859
0.143053 0.143247 0.143442 0.143636 0.143829 0.144023 0.144217 0.144411 0.144605 0.144798
0.144992 0.145186 0.145379 0.145573 0.145766 0.145959 0.146153 0.146346 0.146539 0.146732
0.146926 0.147119 0.147312 0.147505 0.147698 0.147891 0.148084 0.148277 0.14847 0.148663
0.148856 0.149048 0.149241 0.149434 0.149627 0.149819 0.150012 0.150205 0.150397 0.15059
0.150783 0.150975 0.151168 0.15136 0.151553 0.151745 0.151938 0.15213 0.152322 0.152515
0.152707 0.152899 0.153092 0.153284 0.153476 0.153668 0.153861 0.154053 0.154245 0.154437
0.154629 0.154821 0.155013 0.155205 0.155397 0.155589 0.155781 0.155973 0.156164 0.156356
0.156548 0.156932 0.157316 0.157699 0.158083 0.158467 0.158577 0.158688 0.158798 0.158909
0.159019 0.159676 0.160333 0.16099 0.161647 0.162303 0.163837 0.165371 0.166905 0.168438
0.169971 0.171504 0.173037 0.17457 0.176102 0.177635 0.1807 0.183765 0.186829 0.189892
0.192955 0.192966 0.192977 0.192988 0.193 0.193011 0.199125 0.205225 0.211313 0.217387
0.223447 0.229506 0.235564 0.241622 0.247679 0.253732 0.259783 0.265833 0.271884 0.277934
0.283984 0.290033 0.296082 0.302131 0.308179 0.314227 0.320275 0.326322 0.332369 0.338416
0.344462 0.350506 0.35655 0.362594 0.368637 0.374679 0.380719 0.386759 0.392799 0.398838
0.404874 0.410907 0.416948 0.422998 0.429051 0.435102 0 7.48045e-05 0.000149611 0.00022442
0.000299231 0.000374044 0.000567532 0.00076105 0.000954598 0.00114818 0.00134178 0.00153542 0.00172908 0.00192277
0.00211649 0.00231024 0.00250402 0.00269782 0.00289167 0.00308555 0.00327946 0.00347341 0.00366739 0.00386139
0.00405542 0.00424949 0.00444358 0.0046377 0.00483184 0.00502602 0.00522022 0.00541445 0.00560871 0.00580301
0.00599735 0.00619172 0.00638612 0.00658057 0.00677507 0.00696961 0.00716419 0.00735882 0.00755349 0.00774822
0.00794299 0.00813781 0.00821748 0.00829716 0.00837685 0.00845655 0.00851881 0.00863756 0.00875633 0.00887513
0.00899394 0.00911277 0.00930792 0.00950312 0.00969838 0.0098937 0.0100891 0.0102845 0.01048 0.0106756
0.0108712 0.0110669 0.0112626 0.0114584 0.0116543 0.0118502 0.0120462 0.0122423 0.0124384 0.0126346
0.0128309 0.0130273 0.0132237 0.0134202 0.0136168 0.0138135 0.0140102 0.0142071 0.014404 0.014601
0.0147981 0.0149954 0.0151927 0.0153901 0.0155876 0.0157852 0.0159829 0.0161806 0.0163785 0.0165765
0.0167746 0.0169728 0.0171711 0.0173695 0.0175681 0.0177667 0.0179655 0.0181644 0.0183634 0.0185626
0.0187619 0.0189614 0.0191609 0.0193607 0.0195605 0.0197605 0.0199607 0.020161 0.0203615 0.0205621
0.0207629 0.0209639 0.021165 0.0213663 0.0215678 0.0217695 0.0219714 0.0221735 0.0223758 0.0225783
0.022781 0.0229839 0.023187 0.0233904 0.023594 0.0237979 0.024002 0.0242063 0.0244109 0.0246157
0.0248208 0.0250262 0.0252318 0.0254377 0.025644 0.0258505 0.0260573 0.0262644 0.0264718 0.0266796
0.0268877 0.0270961 0.0273049 0.027514 0.0277234 0.0279332 0.0281434 0.0283539 0.0285648 0.0287761
0.0289878 0.0291999 0.0294124 0.0296254 0.0298388 0.0300527 0.030267 0.0303707 0.0304744 0.0305783
0.0306824 0.0307801 0.0308932 0.0310065 0.0311199 0.0312334 0.0313472 0.0315647 0.0317828 0.0320016
0.0322209 0.0324409 0.0326615 0.0328827 0.0331047 0.0333273 0.0335507 0.0337748 0.0339997 0.0342254
0.0344519 0.0346793 0.0349075 0.0351367 0.0353669 0.035598 0.0358301 0.0360633 0.0362975 0.0365328
0.0367693 0.037007 0.0372458 0.037486 0.0377276 0.0379706 0.038215 0.0384608 0.0387083 0.0389574
0.0392084 0.0394611 0.0397157 0.0399725 0.0402315 0.0404928 0.0407562 0.0410219 0.0412903 0.0415613
0.0418352 0.0421119 0.0423915 0.0426745 0.042961 0.0432512 0.0435451 0.0438433 0.0441459 0.0444532
0.0447655 0.0450834 0.0454059 0.0457339 0.0460676 0.0464069 0.046754 0.0471039 0.0474589 0.047819
0.0481842 0.0485628 0.0486229 0.0486834 0.0487442 0.0488054 0.0488584 0.0491921 0.0495345 0.0498859
0.0502461 0.050634 0.0508657 0.0511023 0.0513432 0.0515842 0.0516233 0.0519231 0.0522208 0.0525153
0.052806 0.0531455 0.0531678 0.05319 0.0532122 0.0532343 0.053256 0.0535286 0.0537927 0.0540484
0.0542961 0.0544927 0.0547052 0.0549128 0.0551155 0.0553132 0.0555112 0.0555112 0.0555113 0.0555113