# vtk DataFile Version 2.0
tracks
ASCII
DATASET POLYDATA
POINTS 19456 float
-1.001 1e-07 0.0011 -0.99955 9.55606e-08 0.00110002 -0.9981 9.11101e-08 0.00110004 -0.99665 8.66485e-08
0.00110007 -0.9952 8.21758e-08 0.0011001 -0.99375 7.76919e-08 0.00110014 -0.99 6.60519e-08 0.00110024
-0.98625 5.4423e-08 0.00110034 -0.9825 4.27909e-08 0.00110043 -0.97875 3.10929e-08 0.00110054 -0.975
1.92689e-08 0.00110067 -0.973791 1.54151e-08 0.00110072 -0.972582 1.15621e-08 0.00110077 -0.971373 7.70865e-09
0.00110082 -0.970164 3.85482e-09 0.00110087 -0.968955 1.63772e-17 0.00110092 -0.966414 -8.10187e-09 0.00110102
-0.963873 -1.62055e-08 0.00110112 -0.961332 -2.43524e-08 0.00110123 -0.958791 -3.25596e-08 0.00110134 -0.95625
-4.08273e-08 0.00110145 -0.9525 -5.311e-08 0.00110162 -0.94875 -6.54048e-08 0.00110179 -0.945 -7.77039e-08
0.00110196 -0.94125 -9.00747e-08 0.00110213 -0.9375 -1.02581e-07 0.00110231 -0.93375 -1.15214e-07 0.00110248
-0.93 -1.2786e-07 0.00110266 -0.92625 -1.40512e-07 0.00110284 -0.9225 -1.53237e-07 0.00110302 -0.91875
-1.66101e-07 0.0011032 -0.915 -1.79091e-07 0.00110339 -0.91125 -1.92101e-07 0.00110357 -0.9075 -2.05115e-07
0.00110376 -0.90375 -2.18203e-07 0.00110394 -0.9 -2.3143e-07 0.00110413 -0.89625 -2.44777e-07 0.00110433
-0.8925 -2.58281e-07 0.00110453 -0.88875 -2.71923e-07 0.00110473 -0.885 -2.85639e-07 0.00110493 -0.88125
-2.9936e-07 0.00110514 -0.8775 -3.13024e-07 0.00110534 -0.87375 -3.26892e-07 0.00110555 -0.87 -3.409e-07
0.00110576 -0.86625 -3.54983e-07 0.00110598 -0.8625 -3.69072e-07 0.00110619 -0.85875 -3.83088e-07 0.00110641
-0.855 -3.97327e-07 0.00110663 -0.85125 -4.11708e-07 0.00110686 -0.8475 -4.26167e-07 0.00110709 -0.84375
-4.40632e-07 0.00110732 -0.84 -4.55071e-07 0.00110755 -0.83625 -4.69687e-07 0.00110779 -0.8325 -4.84445e-07
0.00110803 -0.82875 -4.9928e-07 0.00110827 -0.825 -5.14122e-07 0.00110852 -0.82125 -5.28853e-07 0.00110876
-0.8175 -5.43848e-07 0.00110901 -0.81375 -5.58984e-07 0.00110927 -0.81 -5.74199e-07 0.00110953 -0.80625
-5.89422e-07 0.00110979 -0.8025 -6.0451e-07 0.00111005 -0.79875 -6.1989e-07 0.00111032 -0.795 -6.35414e-07
0.0011106 -0.79125 -6.51019e-07 0.00111088 -0.7875 -6.66632e-07 0.00111116 -0.78375 -6.8221e-07 0.00111144
-0.78 -6.97987e-07 0.00111172 -0.77625 -7.13911e-07 0.00111202 -0.7725 -7.29918e-07 0.00111232 -0.76875
-7.45933e-07 0.00111262 -0.765 -7.61911e-07 0.00111292 -0.76125 -7.78089e-07 0.00111322 -0.7575 -7.94409e-07
0.00111354 -0.75375 -8.10812e-07 0.00111386 -0.75 -8.27223e-07 0.00111418 -0.74625 -8.43413e-07 0.0011145
-0.7425 -8.59991e-07 0.00111483 -0.73875 -8.76714e-07 0.00111517 -0.735 -8.9352e-07 0.00111552 -0.73125
-9.10336e-07 0.00111586 -0.7275 -9.26894e-07 0.0011162 -0.72375 -9.43893e-07 0.00111656 -0.72 -9.61049e-07
0.00111692 -0.71625 -9.78295e-07 0.00111729 -0.7125 -9.95553e-07 0.00111766 -0.70875 -1.01251e-06 0.00111803
-0.705 -1.02996e-06 0.00111841 -0.70125 -1.04759e-06 0.0011188 -0.6975 -1.0653e-06 0.0011192 -0.69375
-1.08304e-06 0.00111959 -0.69 -1.10072e-06 0.00111999 -0.68625 -1.11867e-06 0.0011204 -0.6825 -1.13679e-06
0.00112082 -0.67875 -1.15502e-06 0.00112125 -0.675 -1.17327e-06 0.00112167 -0.67125 -1.19147e-06 0.0011221
-0.6675 -1.20994e-06 0.00112254 -0.66375 -1.2286e-06 0.00112299 -0.66 -1.24736e-06 0.00112345 -0.65625
-1.26614e-06 0.00112391 -0.6525 -1.28445e-06 0.00112437 -0.64875 -1.30348e-06 0.00112484 -0.645 -1.32269e-06
0.00112533 -0.64125 -1.34202e-06 0.00112582 -0.6375 -1.36137e-06 0.00112632 -0.63375 -1.38068e-06 0.00112681
-0.63 -1.40031e-06 0.00112732 -0.62625 -1.42014e-06 0.00112784 -0.6225 -1.44011e-06 0.00112837 -0.61875
-1.46009e-06 0.0011289 -0.615 -1.48004e-06 0.00112943 -0.61125 -1.50032e-06 0.00112998 -0.6075 -1.52083e-06
0.00113054 -0.60375 -1.54147e-06 0.00113111 -0.6 -1.56214e-06 0.00113168 -0.59625 -1.58278e-06 0.00113225
-0.5925 -1.60355e-06 0.00113283 -0.58875 -1.62434e-06 0.0011334 -0.585 -1.64528e-06 0.00113398 -0.58125
-1.66647e-06 0.00113458 -0.5775 -1.68703e-06 0.00113519 -0.57375 -1.70856e-06 0.0011358 -0.57 -1.73011e-06
0.00113642 -0.56625 -1.75182e-06 0.00113704 -0.5625 -1.77381e-06 0.00113769 -0.55875 -1.79506e-06 0.00113835
-0.555 -1.81742e-06 0.00113901 -0.55125 -1.83982e-06 0.00113967 -0.5475 -1.8624e-06 0.00114034 -0.54375
-1.88527e-06 0.00114103 -0.54 -1.90841e-06 0.00114173 -0.53625 -1.93171e-06 0.00114244 -0.5325 -1.95505e-06
0.00114315 -0.52875 -1.97859e-06 0.00114387 -0.525 -2.00244e-06 0.00114461 -0.52125 -2.02526e-06 0.00114537
-0.5175 -2.04959e-06 0.00114612 -0.51375 -2.07396e-06 0.00114688 -0.51 -2.09855e-06 0.00114765 -0.50625
-2.12347e-06 0.00114844 -0.5025 -2.14716e-06 0.00114925 -0.49875 -2.17262e-06 0.00115006 -0.495 -2.19811e-06
0.00115087 -0.49125 -2.22385e-06 0.00115169 -0.4875 -2.24995e-06 0.00115253 -0.48375 -2.27642e-06 0.00115339
-0.48 -2.30312e-06 0.00115425 -0.47625 -2.32985e-06 0.00115511 -0.4725 -2.35685e-06 0.00115598 -0.46875
-2.38423e-06 0.00115687 -0.465 -2.41205e-06 0.00115778 -0.46125 -2.4401e-06 0.00115869 -0.4575 -2.4682e-06
0.0011596 -0.45375 -2.49658e-06 0.00116052 -0.45 -2.52537e-06 0.00116146 -0.44625 -2.55465e-06 0.00116241
-0.4425 -2.58418e-06 0.00116336 -0.43875 -2.61378e-06 0.00116432 -0.435 -2.64368e-06 0.00116528 -0.43125
-2.67401e-06 0.00116626 -0.4275 -2.70177e-06 0.00116724 -0.42375 -2.73295e-06 0.00116823 -0.42 -2.76418e-06
0.00116922 -0.41625 -2.79575e-06 0.00117022 -0.4125 -2.82778e-06 0.00117122 -0.40875 -2.85672e-06 0.00117222
-0.405 -2.8897e-06 0.00117323 -0.40125 -2.92275e-06 0.00117424 -0.3975 -2.95616e-06 0.00117525 -0.39375
-2.99008e-06 0.00117626 -0.39 -3.02471e-06 0.00117726 -0.38625 -3.0597e-06 0.00117827 -0.3825 -3.09478e-06
0.00117928 -0.37875 -3.13025e-06 0.00118027 -0.375 -3.16626e-06 0.00118125 -0.37125 -3.20311e-06 0.00118222
-0.3675 -3.24036e-06 0.00118318 -0.36375 -3.2777e-06 0.00118415 -0.36 -3.31548e-06 0.00118509 -0.35625
-3.35382e-06 0.00118599 -0.3525 -3.38672e-06 0.00118686 -0.34875 -3.42647e-06 0.00118773 -0.345 -3.46632e-06
0.00118859 -0.34125 -3.50663e-06 0.00118942 -0.3375 -3.54754e-06 0.00119017 -0.33375 -3.58956e-06 0.00119087
-0.33 -3.6321e-06 0.00119156 -0.32625 -3.67475e-06 0.00119225 -0.3225 -3.71789e-06 0.00119287 -0.31875
-3.76166e-06 0.00119339 -0.315 -3.80673e-06 0.0011938 -0.31125 -3.85236e-06 0.00119421 -0.3075 -3.89812e-06
0.00119463 -0.30375 -3.9444e-06 0.00119493 -0.3 -3.99135e-06 0.00119507 -0.29625 -4.02856e-06 0.00119505
-0.2925 -4.07814e-06 0.00119479 -0.28875 -4.12839e-06 0.00119431 -0.285 -4.17918e-06 0.00119365 -0.28125
-4.23008e-06 0.001193 -0.2775 -4.2686e-06 0.00119234 -0.27375 -4.32184e-06 0.00119135 -0.27 -4.37574e-06
0.00119002 -0.26625 -4.43015e-06 0.00118845 -0.2625 -4.48469e-06 0.00118689 -0.25875 -4.5243e-06 0.00118532
-0.255 -4.58141e-06 0.00118328 -0.25125 -4.63914e-06 0.00118075 -0.2475 -4.69734e-06 0.00117789 -0.24375
-4.75564e-06 0.00117504 -0.24 -4.81566e-06 0.00117219 -0.23625 -4.87682e-06 0.00116872 -0.2325 -4.93849e-06
0.00116461 -0.22875 -5.00053e-06 0.00116008 -0.225 -5.06264e-06 0.00115558 -0.22125 -5.10318e-06 0.00115109
-0.2175 -5.16792e-06 0.00114575 -0.21375 -5.23299e-06 0.00113955 -0.21 -5.29825e-06 0.00113284 -0.20625
-5.36354e-06 0.00112617 -0.2025 -5.40344e-06 0.00111955 -0.19875 -5.47258e-06 0.00111173 -0.195 -5.5418e-06
0.0011027 -0.19125 -5.61104e-06 0.00109309 -0.1875 -5.68023e-06 0.00108358 -0.18375 -5.75116e-06 0.00107416
-0.18 -5.82211e-06 0.00106321 -0.17625 -5.89257e-06 0.00105076 -0.1725 -5.96273e-06 0.0010378 -0.16875
-6.03273e-06 0.00102502 -0.165 -6.10535e-06 0.00101241 -0.16125 -6.17719e-06 0.000998025 -0.1575 -6.24797e-06
0.000981897 -0.15375 -6.31831e-06 0.000965532 -0.15 -6.38842e-06 0.000949471 -0.14625 -6.46139e-06 0.000933698
-0.1425 -6.53174e-06 0.000915934 -0.13875 -6.59955e-06 0.000896234 -0.135 -6.66693e-06 0.0008768 -0.13125
-6.73409e-06 0.000857823 -0.1275 -6.75729e-06 0.000839283 -0.12375 -6.8243e-06 0.000818687 -0.12 -6.88937e-06
0.000796434 -0.11625 -6.95424e-06 0.000774824 -0.1125 -7.01894e-06 0.000753836 -0.10875 -7.03643e-06 0.000733437
-0.105 -7.09796e-06 0.000711027 -0.10125 -7.15661e-06 0.000687656 -0.0975 -7.21524e-06 0.000665079 -0.0937499
-7.27389e-06 0.000643267 -0.0899999 -7.33478e-06 0.000622175 -0.0862499 -7.39324e-06 0.000599564 -0.0824999 -7.4513e-06
0.000576891 -0.0787499 -7.50944e-06 0.000555081 -0.0749999 -7.56766e-06 0.0005341 -0.0712499 -7.62745e-06 0.000513895
-0.0674999 -7.68932e-06 0.000493624 -0.0637499 -7.75177e-06 0.000474001 -0.0599999 -7.81419e-06 0.000455146 -0.0562499
-7.8766e-06 0.000437029 -0.0524999 -7.88735e-06 0.000419601 -0.0487498 -7.94673e-06 0.000404529 -0.0449998 -8.00616e-06
0.000389982 -0.0412498 -8.06567e-06 0.000375942 -0.0374998 -8.12526e-06 0.000362393 -0.0337498 -8.18502e-06 0.000349303
-0.0299998 -8.24117e-06 0.000340676 -0.0262498 -8.2975e-06 0.000332254 -0.0224998 -8.354e-06 0.000324032 -0.0187499
-8.4107e-06 0.000316007 -0.0149999 -8.46649e-06 0.00030817 -0.0112499 -8.52506e-06 0.000304743 -0.0074999 -8.58381e-06
0.000301354 -0.00374991 -8.64276e-06 0.000298 6.11926e-08 -8.7019e-06 0.000294682 0.00375005 -8.71473e-06 0.000291403
0.00750005 -8.76738e-06 0.000288172 0.01125 -8.82015e-06 0.000284976 0.015 -8.87305e-06 0.000281814 0.01875
-8.92608e-06 0.000278686 0.0225 -8.94601e-06 0.000277651 0.02625 -9.00218e-06 0.000276625 0.03 -9.05851e-06
0.000275603 0.03375 -9.11499e-06 0.000274585 0.0375 -9.17165e-06 0.00027357 0.04125 -9.19511e-06 0.000273083
0.045 -9.25037e-06 0.0002726 0.04875 -9.30578e-06 0.000272118 0.0525 -9.36135e-06 0.000271638 0.05625
-9.41707e-06 0.000271158 0.06 -9.47523e-06 0.00027096 0.06375 -9.52967e-06 0.000270765 0.0675 -9.58425e-06
0.00027057 0.07125 -9.63898e-06 0.000270376 0.075 -9.69385e-06 0.000270182 0.07875 -9.72079e-06 0.000270135
0.0825 -9.77318e-06 0.00027009 0.08625 -9.82571e-06 0.000270046 0.09 -9.87837e-06 0.000270001 0.09375
-9.93116e-06 0.000269957 0.0975 -9.95558e-06 0.000269962 0.10125 -1.00045e-05 0.00026997 0.105 -1.00536e-05
0.000269977 0.10875 -1.01028e-05 0.000269984 0.1125 -1.01521e-05 0.000269992 0.11625 -1.02016e-05 0.000270011
[...]
POINT_DATA 19456
FIELD attributes 3
age 1 19456 float
0 7.30146e-05 0.000146033 0.000219055 0.000292081 0.00036511 0.000553989 0.000742868 0.000931746 0.00112064 0.00130957
0.00137049 0.00143141 0.00149232 0.00155324 0.00161417 0.00174221 0.00187025 0.0019983 0.00212637 0.00225445
0.0024435 0.00263255 0.0028216 0.00301066 0.00319977 0.00338891 0.00357805 0.00376719 0.00395635 0.00414555
0.0043348 0.00452404 0.00471328 0.00490254 0.00509185 0.0052812 0.00547059 0.00566003 0.00584949 0.00603896
0.00622842 0.00641793 0.00660749 0.00679708 0.00698667 0.00717625 0.00736589 0.00755559 0.0077453 0.00793502
0.00812474 0.00831452 0.00850435 0.00869421 0.00888407 0.00907394 0.00926386 0.00945384 0.00964385 0.00983387
0.0100239 0.010214 0.0104041 0.0105943 0.0107845 0.0109747 0.0111649 0.0113552 0.0115456 0.0117359
0.0119263 0.0121167 0.0123072 0.0124978 0.0126883 0.0128789 0.0130695 0.0132603 0.013451 0.0136418
0.0138325 0.0140234 0.0142143 0.0144053 0.0145963 0.0147873 0.0149784 0.0151696 0.0153608 0.015552
0.0157433 0.0159346 0.016126 0.0163175 0.016509 0.0167005 0.0168922 0.0170839 0.0172757 0.0174675
0.0176593 0.0178512 0.0180432 0.0182353 0.0184274 0.0186196 0.0188118 0.0190042 0.0191966 0.0193891
0.0195816 0.0197742 0.0199669 0.0201598 0.0203526 0.0205454 0.0207383 0.0209311 0.0211241 0.0213172
0.0215104 0.0217037 0.021897 0.0220903 0.0222839 0.0224776 0.0226713 0.022865 0.0230589 0.0232529
0.0234471 0.0236414 0.0238356 0.02403 0.0242245 0.0244193 0.0246141 0.0248089 0.0250038 0.0251989
0.0253943 0.0255897 0.0257851 0.0259807 0.0261765 0.0263726 0.0265686 0.0267647 0.026961 0.0271575
0.0273543 0.0275511 0.0277479 0.0279449 0.0281423 0.0283399 0.0285375 0.0287352 0.0289331 0.0291313
0.0293298 0.0295284 0.0297269 0.0299257 0.0301249 0.0303245 0.030524 0.0307236 0.0309234 0.0311237
0.0313244 0.031525 0.0317257 0.0319267 0.0321281 0.03233 0.0325319 0.0327338 0.032936 0.0331388
0.033342 0.0335452 0.0337484 0.033952 0.0341561 0.0343608 0.0345654 0.0347701 0.0349752 0.0351808
0.035387 0.0355932 0.0357994 0.036006 0.0362132 0.0364209 0.0366293 0.0368383 0.0370477 0.0372571
0.0374665 0.0376765 0.0378871 0.0380981 0.038309 0.0385199 0.0387314 0.0389434 0.0391558 0.0393681
0.0395803 0.039793 0.0400062 0.0402196 0.0404329 0.040646 0.0408595 0.0410733 0.0412872 0.0415008
0.0417143 0.0419279 0.0421414 0.0423549 0.042568 0.0427809 0.0429934 0.0432055 0.0434172 0.0436285
0.0438395 0.0440496 0.0442588 0.0444674 0.0446757 0.0448835 0.0450899 0.0452948 0.0454991 0.0457031
0.0459066 0.046108 0.0463075 0.0465067 0.0467055 0.0469039 0.0470996 0.0472934 0.047487 0.0476805
0.0478737 0.0480635 0.048252 0.0484404 0.0486289 0.0488172 0.0490019 0.0491861 0.0493705 0.049555
0.0497395 0.0499208 0.0501022 0.0502838 0.0504657 0.0506477 0.0508276 0.0510077 0.051188 0.0513685
0.0515491 0.051729 0.051909 0.052089 0.0522692 0.0524494 0.0526297 0.0528101 0.0529905 0.0531711
0.0533517 0.0535324 0.053713 0.0538937 0.0540744 0.0542555 0.0544365 0.0546176 0.0547986 0.0549797
0.0551611 0.0553425 0.055524 0.0557054 0.0558868 0.0560685 0.0562502 0.056432 0.0566137 0.0567954
0.0569775 0.0571595 0.0573415 0.0575235 0.0577055 0.0578878 0.0580701 0.0582524 0.0584347 0.058617
0.0587997 0.0589823 0.0591649 0.0593474 0.05953 0.059713 0.0598959 0.0600788 0.0602616 0.0604445
0.0606278 0.060811 0.0609942 0.0611774 0.0613606 0.0615441 0.0617276 0.0619111 0.0620946 0.0622781
0.0624619 0.0626457 0.0628295 0.0630133 0.0631971 0.0633812 0.0635653 0.0637494 0.0639335 0.0641175
0.0643019 0.0644862 0.0646706 0.0648549 0.0650392 0.0652238 0.0654084 0.0655929 0.0657775 0.0659621
0.0661469 0.0663316 0.0665164 0.0667012 0.066886 0.067071 0.0672561 0.0674412 0.0676264 0.0678115
0.0679966 0.0681819 0.0683672 0.0685525 0.0687378 0.0689231 0.0691085 0.0692939 0.0694793 0.0696648
0.0698502 0.0700357 0.0702213 0.0704068 0.0705924 0.0707779 0.0709636 0.0711492 0.0713348 0.0715205
0.0717061 0.0718919 0.0720776 0.0722633 0.072449 0.0726348 0.0728206 0.0730064 0.0731921 0.0733779
0.0735637 0.0737496 0.0739354 0.0741212 0.0743071 0.0744929 0.0746788 0.0748646 0.0750505 0.0752364
0.0754222 0.0756081 0.0757939 0.0759798 0.0761656 0.0763515 0.0765374 0.0767232 0.076909 0.0770949
0.0772807 0.0774665 0.0776523 0.0778381 0.0780239 0.0782097 0.0783955 0.0785813 0.078767 0.0789528
0.0791386 0.0793243 0.07951 0.0796957 0.0798815 0.0800672 0.0802529 0.0804386 0.0806243 0.0808101
0.0809958 0.0811815 0.0813672 0.081553 0.0817387 0.0817682 0.0817976 0.0818271 0.0818566 0.081886
0.0820423 0.0821986 0.0823548 0.0825111 0.0826674 0.0828532 0.0830389 0.0832247 0.0834105 0.0835963
0.0837821 0.0839679 0.0841538 0.0843396 0.0845255 0.0847114 0.0848973 0.0850832 0.0852691 0.085455
0.085641 0.0858269 0.0860129 0.0861989 0.0863849 0.0865709 0.086757 0.086943 0.0871291 0.0873151
0.0875012 0.0876874 0.0878735 0.0880596 0.0882457 0.0884319 0.088618 0.0888042 0.0889903 0.0891765
0.0893627 0.089549 0.0897352 0.0899214 0.0901076 0.0902939 0.0904801 0.0906664 0.0908526 0.0910389
0.0912252 0.0914115 0.0915978 0.0917841 0.0919704 0.0921567 0.0923431 0.0925294 0.0927157 0.0929021
0.0930884 0.0932748 0.0934612 0.0936475 0.0938339 0.0940203 0.0942067 0.0943931 0.0945795 0.0947659
0.0949523 0.0951387 0.0953252 0.0955116 0.095698 0.0958845 0.096071 0.0962574 0.0964439 0.0966304
0.0968169 0.0970035 0.09719 0.0973766 0.0975632 0.0977498 0.0979364 0.098123 0.0983097 0.0984963
0.098683 0.0988697 0.0990564 0.0992431 0.0994298 0.0996166 0.0998033 0.0999901 0.100177 0.100364
0.10055 0.100737 0.100924 0.101111 0.101298 0.101485 0.101672 0.101859 0.102046 0.102233
0.10242 0.102607 0.102794 0.102982 0.103169 0.103356 0.103544 0.103731 0.103919 0.104107
0.104294 0.104482 0.104671 0.104859 0.105047 0.105235 0.105423 0.105612 0.105801 0.105989
0.106178 0.106367 0.106556 0.106746 0.106935 0.107124 0.107314 0.107503 0.107693 0.107883
0.108072 0.108262 0.108452 0.108643 0.108833 0.109023 0.109213 0.109403 0.109594 0.109784
0.109974 0.110165 0.110355 0.110546 0.110736 0.110927 0.111117 0.111308 0.111499 0.111689
0.11188 0.11207 0.112261 0.112451 0.112642 0.112832 0.113023 0.113214 0.113404 0.113595
0.113785 0.113976 0.114167 0.114357 0.114548 0.114738 0.114929 0.11512 0.11531 0.115501
0.115691 0.115882 0.116072 0.116263 0.116454 0.116644 0.116835 0.117025 0.117216 0.117406
0.117597 0.117787 0.117978 0.118169 0.118359 0.11855 0.11874 0.118931 0.119121 0.119312
0.119502 0.119693 0.119883 0.120074 0.120264 0.120455 0.120645 0.120836 0.121027 0.121217
0.121407 0.121598 0.121789 0.121979 0.12217 0.12236 0.12255 0.122741 0.122931 0.123122
0.123312 0.123503 0.123693 0.123884 0.124074 0.124264 0.124455 0.124645 0.124836 0.125026
0.125216 0.125407 0.125597 0.125788 0.125978 0.126168 0.126359 0.126549 0.126739 0.12693
0.12712 0.12731 0.1275 0.127691 0.127881 0.128071 0.128261 0.128452 0.128642 0.128832
0.129022 0.129212 0.129403 0.129593 0.129783 0.129973 0.130163 0.130353 0.130543 0.130734
0.130923 0.131113 0.131304 0.131494 0.131684 0.131873 0.132063 0.132254 0.132444 0.132634
0.132823 0.133013 0.133203 0.133393 0.133583 0.133773 0.133963 0.134153 0.134343 0.134533
0.134722 0.134912 0.135102 0.135292 0.135482 0.135671 0.135861 0.136051 0.136241 0.136431
0.13662 0.13681 0.137 0.13719 0.13738 0.137569 0.137759 0.137949 0.138139 0.138329
0.138518 0.138708 0.138898 0.139087 0.139277 0.139466 0.139656 0.139846 0.140036 0.140226
0.140415 0.140605 0.140794 0.140984 0.141174 0.141363 0.141552 0.141742 0.141932 0.142122
0.14231 0.1425 0.14269 0.142879 0.143069 0.143258 0.143447 0.143637 0.143827 0.144016
0.144205 0.144394 0.144584 0.144773 0.144963 0.145151 0.145341 0.14553 0.14572 0.145909
0.146097 0.146287 0.146476 0.146665 0.146855 0.147043 0.147232 0.147422 0.147611 0.1478
0.147988 0.148178 0.148367 0.148556 0.148745 0.148933 0.149122 0.149311 0.1495 0.149689
0.149878 0.150067 0.150256 0.150445 0.150634 0.150822 0.151011 0.151199 0.151388 0.151577
0.151953 0.15233 0.152707 0.153083 0.15346 0.154211 0.154962 0.155713 0.156464 0.157215
0.158715 0.160216 0.161716 0.163217 0.164717 0.166218 0.167718 0.169218 0.170718 0.172218
0.175219 0.178219 0.181219 0.184219 0.187219 0.193219 0.199219 0.20522 0.21122 0.21722
0.22322 0.22922 0.23522 0.24122 0.24722 0.25322 0.25922 0.26522 0.27122 0.27722
0.28322 0.28922 0.29522 0.30122 0.30722 0.31322 0.31922 0.32522 0.33122 0.33722
0.34322 0.34922 0.35522 0.36122 0.367221 0.373221 0.379221 0.385221 0.391221 0.397221
0.403221 0.403266 0 7.3687e-05 0.000147378 0.000221073 0.000294772 0.000368474 0.000435969 0.000503468
0.00057097 0.000638478 0.000704828 0.000828228 0.000951641 0.00107507 0.00119851 0.00132197 0.00151276 0.00170359
0.00189445 0.00208535 0.00227628 0.00246725 0.00265826 0.0028493 0.00304038 0.0032315 0.00342266 0.00361386
0.0038051 0.00399638 0.0041877 0.00437906 0.00457047 0.00476191 0.00495341 0.00514494 0.00533652 0.00552814
0.00571981 0.00591153 0.0061033 0.00629511 0.00648697 0.00667888 0.00687084 0.00706285 0.00725491 0.00744703
0.00763919 0.00783142 0.00802369 0.00821602 0.00840841 0.00860085 0.00879336 0.00898592 0.00917854 0.00937122
0.00956396 0.00975677 0.00994963 0.0101426 0.0103356 0.0105286 0.0107218 0.010915 0.0111082 0.0113016
0.011495 0.0116884 0.011882 0.0120756 0.0122693 0.0124631 0.012657 0.0128509 0.0130449 0.013239
0.0134332 0.0136275 0.0138219 0.0140163 0.0142109 0.0144055 0.0146002 0.014795 0.0149899 0.0151849
0.01538 0.0155752 0.0157705 0.0159659 0.0161614 0.0163571 0.0165528 0.0167486 0.0169446 0.0171406
0.0173368 0.0175331 0.0177295 0.0179261 0.0181227 0.0183195 0.0185165 0.0187135 0.0189107 0.019108
0.0193055 0.0195031 0.0197008 0.0198987 0.0200968 0.020295 0.0204933 0.0206918 0.0208905 0.0210893
0.0212883 0.0214875 0.0216868 0.0218863 0.022086 0.0222859 0.022486 0.0226862 0.0228867 0.0230873
0.0232882 0.0234892 0.0236905 0.023892 0.0240936 0.0242956 0.0244977 0.0247001 0.0249027 0.0251055
0.0253087 0.025512 0.0257156 0.0259195 0.0261236 0.026328 0.0265327 0.0267377 0.0269429 0.0271485
0.0273544 0.0275605 0.027767 0.0279738 0.028181 0.0283885 0.0285963 0.0288045 0.029013 0.0292219
0.0294312 0.0296409 0.0298509 0.0300614 0.0302722 0.0304836 0.0306953 0.0309075 0.0311201 0.0313332
0.0315467 0.0317608 0.0319753 0.0321903 0.0324059 0.032622 0.0328387 0.0330559 0.0332736 0.033492
0.0337109 0.0339305 0.0341507 0.0343715 0.034593 0.0348152 0.0350381 0.0352617 0.0354859 0.035711
0.0359368 0.0361633 0.0363907 0.0366189 0.0368479 0.0370778 0.0373086 0.0375403 0.0377729 0.0380064
0.0382408 0.0384763 0.0387128 0.0389502 0.0391888 0.0394285 0.0396693 0.0399112 0.0401542 0.0403983
0.0406436 0.0408901 0.0411378 0.0413868 0.0416371 0.0418887 0.0421416 0.0423959 0.0426513 0.0429079
0.0431657 0.0434248 0.0436856 0.0439475 0.0442107 0.044475 0.0447403 0.0450076 0.0452754 0.0455437
0.0458126 0.0460819 0.0463538 0.0464804 0.046607 0.0467335 0.04686 0.0469397 0.047094 0.0472482
0.0474023 0.0475561 0.047711 0.0479818 0.0482507 0.0485179 0.0487831 0.0490515 0.0491972 0.0493417
0.049485 0.0496272 0.049737 0.0498578 0.0499778 0.0500971 0.0502156 0.0503342 0.0505816 0.0508238
0.0510611 0.0512936 0.0515227 0.0515379 0.051553 0.0515681 0.0515832 0.0515983 0.0518052 0.0520075
0.0522054 0.0523991 0.0525867 0.0526977 0.0528071 0.0529148 0.0530212 0.0531546 0.0532293 0.0533033
0.0533767 0.0534494 0.0535209 0.0536953 0.053866 0.0540332 0.0541972 0.0543549 0.0544929 0.0546295
0.0547645 0.0548981 0.0551208 0.055135 0.0551491 0.0551632 0.0551773 0.0551934 0.0553254 0.0554569
0.0555878 0.0557182 0.0558472 0.0559901 0.0561332 0.0562764 0.0564197 0.0565629 0.0567062 0.0568498
0.0569937 0.057138 0.0572827 0.0574277 0.0575731 0.0577188 0.057865 0.0580114 0.0581582 0.0583053
0.0584528 0.0586005 0.0587486 0.058897 0.0590457 0.0591947 0.0593441 0.0594937 0.0596437 0.0597939
0.0599444 0.0600953 0.0602464 0.0603978 0.0605496 0.0607016 0.060854 0.0610067 0.0611596 0.0613129
0.0614666 0.0616205 0.0617748 0.0619294 0.0620844 0.0622397 0.0623953 0.0625513 0.0627076 0.0628643
0.0630213 0.0631787 0.0633364 0.0634945 0.0636529 0.0638117 0.0639708 0.0641303 0.0642901 0.0644502
0.0646107 0.0647715 0.0649326 0.0650941 0.0652559 0.065418 0.0655805 0.0657432 0.0659063 0.0660697
0.0662333 0.0663973 0.0665616 0.0667261 0.0668909 0.067056 0.0672214 0.0673871 0.067553 0.0677191
0.0678855 0.0680522 0.0682191 0.0683863 0.0685537 0.0687213 0.0688891 0.0690572 0.0692255 0.069394
0.0695627 0.0697316 0.0699007 0.07007 0.0702395 0.0704092 0.0705791 0.0707491 0.0709194 0.0710898
0.0712603 0.0714311 0.071602 0.071773 0.0719443 0.0721156 0.0722871 0.0724588 0.0726306 0.0728025
0.0729746 0.0731467 0.073319 0.0734914 0.073664 0.0738366 0.0740093 0.0741822 0.0743551 0.0745281
0.0747012 0.0748743 0.0750475 0.0752208 0.0753942 0.0755676 0.075741 0.0759145 0.076088 0.0762616
0.0764351 0.0766086 0.0767822 0.0769558 0.0771294 0.0773029 0.0774765 0.07765 0.0778235 0.0779969
0.0781703 0.0783437 0.078517 0.0786903 0.0788636 0.0790368 0.0792099 0.079383 0.0795561 0.0797291
0.079902 0.0800749 0.0802478 0.0804206 0.0805934 0.0807662 0.080939 0.0811117 0.0811696 0.0812274
0.0812852 0.0813431 0.081396 0.0815119 0.0816278 0.0817437 0.0818597 0.0819756 0.0821485 0.0823214
0.0824944 0.0826675 0.0828406 0.0830137 0.083187 0.0833603 0.0835338 0.0837073 0.083881 0.0840547
0.0842286 0.0844026 0.0845767 0.0847509 0.0849252 0.0850997 0.0852742 0.0854489 0.0856237 0.0857986
0.0859737 0.0861489 0.0863241 0.0864995 0.086675 0.0868507 0.0870264 0.0872022 0.0873782 0.0875542
0.0877304 0.0879067 0.0880831 0.0882596 0.0884361 0.0886128 0.0887895 0.0889663 0.0891433 0.0893203
0.0894975 0.0896747 0.0898519 0.0900293 0.0902067 0.0903842 0.0905618 0.0907394 0.0909172 0.091095
0.0912729 0.0914508 0.0916288 0.0918069 0.0919851 0.0921633 0.0923415 0.0925199 0.0926983 0.0928768
0.0930554 0.093234 0.0934127 0.0935915 0.0937704 0.0939492 0.0941282 0.0943073 0.0944864 0.0946656
0.0948449 0.0950243 0.0952037 0.0953833 0.0955629 0.0957426 0.0959224 0.0961022 0.0962822 0.0964623
0.0966425 0.0968228 0.0970032 0.0971838 0.0973645 0.0975453 0.0977262 0.0979074 0.0980892 0.0982711
0.0984533 0.0986356 0.098818 0.0989997 0.0991815 0.0993634 0.0995454 0.0997275 0.0999099 0.100092
0.100275 0.100458 0.100641 0.100824 0.101007 0.10119 0.101374 0.101558 0.101743 0.101928
0.102113 0.102299 0.102485 0.102672 0.10286 0.103048 0.103237 0.103427 0.103618 0.10381
0.104003 0.104196 0.104391 0.104587 0.104784 0.104982 0.105181 0.105381 0.105584 0.105787
0.105992 0.106199 0.106407 0.106616 0.106827 0.107039 0.107253 0.107468 0.107686 0.107905
0.108127 0.10835 0.108574 0.108801 0.109029 0.109259 0.10949 0.109723 0.109959 0.110196
0.110436 0.110676 0.110919 0.111164 0.11141 0.111657 0.111906 0.112157 0.11241 0.112664
0.11292 0.113178 0.113437 0.113697 0.113959 0.114222 0.114486 0.114752 0.11502 0.115288
0.115558 0.115828 0.1161 0.116373 0.116648 0.116923 0.117199 0.117476 0.117754 0.118033
0.118313 0.118593 0.118874 0.119156 0.119439 0.119722 0.120006 0.12029 0.120575 0.12086
0.121146 0.121432 0.121718 0.12199 0.122261 0.122533 0.122805 0.123053 0.123073 0.123093
0.123113 0.123133 0.123153 0.12344 0.123728 0.124015 0.124303 0.124591 0.124878 0.125165
0.125453 0.12574 0.126027 0.126313 0.1266 0.126886 0.127173 0.127458 0.127742 0.128028
0.128313 0.128597 0.128881 0.129163 0.129446 0.129729 0.130012 0.130294 0.130574 0.130855
0.131135 0.131416 0.131695 0.131973 0.132252 0.132531 0.132809 0.133087 0.133362 0.133639
0.133915 0.134191 0.134467 0.13474 0.135014 0.135288 0.135562 0.135835 0.136106 0.136378
0.13665 0.136921 0.137191 0.137461 0.13773 0.137999 0.138268 0.138536 0.138553 0.138571
0.138588 0.138605 0.138623 0.138873 0.139123 0.139372 0.139621 0.13987 0.140136 0.140401
0.140666 0.14093 0.141194 0.141457 0.141721 0.141984 0.142246 0.142509 0.142769 0.143031
0.143293 0.143554 0.143815 0.144073 0.144333 0.144594 0.144853 0.145112 0.145369 0.145628
0.145886 0.146145 0.146402 0.146658 0.146914 0.147172 0.14743 0.147685 0.147939 0.148194
0.148451 0.148707 0.148961 0.149214 0.149467 0.149723 0.149978 0.150231 0.150481 0.150734
0.150988 0.151242 0.151493 0.151743 0.151994 0.152246 0.152499 0.152749 0.152997 0.153247
0.153498 0.15375 0.153999 0.154246 0.154494 0.154744 0.154993 0.155241 0.155487 0.155734
0.155982 0.15623 0.156477 0.156721 0.156967 0.157214 0.15746 0.157706 0.157949 0.158194
0.158439 0.158683 0.158928 0.15917 0.159413 0.159657 0.1599 0.160143 0.160384 0.160626
0.160867 0.161109 0.16135 0.16159 0.161831 0.162071 0.162311 0.16255 0.162789 0.163028
0.163266 0.163505 0.163743 0.163863 0.163983 0.164104 0.164224 0.164334 0.164453 0.164572
0.16469 0.164808 0.164927 0.165163 0.165399 0.165635 0.165871 0.166106 0.166341 0.166576
0.16681 0.167044 0.167278 0.167286 0.167294 0.167302 0.16731 0.167318 0.167776 0.168232
0.168687 0.169131 0.169554 0.170362 0.171171 0.171978 0.172782 0.173583 0.175115 0.17665
0.178182 0.179709 0.181234 0.182742 0.184255 0.185767 0.187278 0.188787 0.191795 0.194806
0.197815 0.200823 0.20383 0.209834 0.215839 0.221844 0.227848 0.233853 0.239853 0.245856
0.251859 0.257861 0.263864 0.269865 0.275867 0.281869 0.287871 0.293873 0.299873 0.305875
0.311877 0.317879 0.32388 0.329881 0.335882 0.341884 0.347885 0.353886 0.359887 0.365888
0.371889 0.37789 0.383891 0.389892 0.395893 0.401894 0.407895 0.413896 0.419896 0.422628
0 7.36629e-05 0.00014733 0.000221003 0.00029468 0.000368361 0.000437609 0.000506861 0.000576117 0.000645378
0.00071342 0.000835023 0.000956639 0.00107827 0.00119991 0.00132157 0.0015123 0.00170307 0.00189387 0.0020847
0.00227558 0.00246648 0.00265742 0.0028484 0.00303942 0.00323047 0.00342156 0.00361269 0.00380386 0.00399507
0.00418631 0.0043776 0.00456893 0.0047603 0.00495172 0.00514317 0.00533467 0.00552622 0.00571781 0.00590944
0.00610112 0.00629285 0.00648462 0.00667644 0.00686832 0.00706024 0.0072522 0.00744423 0.0076363 0.00782842
0.0080206 0.00821283 0.00840512 0.00859746 0.00878986 0.00898231 0.00917482 0.00936739 0.00956002 0.00975271
0.00994546 0.0101383 0.0103312 0.0105241 0.0107171 0.0109102 0.0111033 0.0112965 0.0114898 0.0116831
0.0118766 0.0120701 0.0122636 0.0124573 0.012651 0.0128448 0.0130386 0.0132326 0.0134266 0.0136207
0.0138149 0.0140092 0.0142036 0.014398 0.0145926 0.0147872 0.0149819 0.0151768 0.0153717 0.0155667
0.0157618 0.015957 0.0161523 0.0163477 0.0165433 0.0167389 0.0169346 0.0171305 0.0173264 0.0175225
0.0177187 0.017915 0.0181114 0.018308 0.0185047 0.0187015 0.0188984 0.0190955 0.0192927 0.01949
0.0196875 0.0198851 0.0200829 0.0202808 0.0204789 0.0206771 0.0208754 0.021074 0.0212726 0.0214715
0.0216705 0.0218697 0.0220691 0.0222686 0.0224684 0.0226683 0.0228684 0.0230687 0.0232692 0.0234698
0.0236707 0.0238718 0.0240732 0.0242747 0.0244764 0.0246784 0.0248806 0.0250831 0.0252858 0.0254887
0.0256919 0.0258954 0.0260991 0.0263031 0.0265073 0.0267119 0.0269167 0.0271218 0.0273272 0.0275329
0.027739 0.0279453 0.028152 0.0283591 0.0285665 0.0287742 0.0289823 0.0291907 0.0293996 0.0296089
0.0298185 0.0298577 0.0298969 0.0299361 0.0299754 0.0300138 0.0301851 0.0303568 0.0305287 0.0307009
0.0308734 0.0310857 0.0312984 0.0315117 0.0317255 0.0319397 0.0321545 0.0323699 0.0325858 0.0328023
0.0330195 0.0332372 0.0334555 0.0336745 0.0338942 0.0341146 0.0343357 0.0345575 0.0347801 0.0350036
0.0352278 0.0354528 0.0356787 0.0359055 0.0361332 0.0363619 0.0365915 0.0368223 0.0370541 0.0372871
0.0375211 0.0377563 0.0379928 0.0382305 0.0384696 0.0387101 0.0389519 0.0391954 0.0394405 0.0396873
0.0399356 0.0401857 0.0404376 0.0406915 0.0409475 0.0412055 0.0414656 0.0417282 0.0419933 0.042261
0.0425314 0.042805 0.0430816 0.0433614 0.0436445 0.0439312 0.0442209 0.0445146 0.0448125 0.0451147
0.0454223 0.0457322 0.0460466 0.0463655 0.0466891 0.047023 0.0471793 0.047337 0.0474957 0.0476554
0.0477328 0.0479392 0.0481469 0.048356 0.0485662 0.0487849 0.0490847 0.0493866 0.0496902 0.0499928
0.0500836 0.0502034 0.0503229 0.050442 0.0505607 0.0506841 0.0508805 0.0510748 0.0512668 0.0514567
0.0515803 0.0517849 0.0519859 0.0521833 0.0523773 0.0525828 0.0526091 0.0526353 0.0526614 0.0526874