# vtk DataFile Version 2.0
tracks
ASCII
DATASET POLYDATA
POINTS 19717 float
-1.001 1e-07 0.0011 -0.99955 9.95522e-08 0.00110002 -0.9981 9.91051e-08 0.00110004 -0.99665 9.86588e-08
0.00110007 -0.9952 9.82132e-08 0.0011001 -0.99375 9.77684e-08 0.00110014 -0.99 9.66008e-08 0.00110023
-0.98625 9.5451e-08 0.00110033 -0.9825 9.43009e-08 0.00110043 -0.97875 9.31503e-08 0.00110054 -0.975
9.19988e-08 0.00110067 -0.97125 9.08294e-08 0.00110082 -0.9675 8.96768e-08 0.00110097 -0.96375 8.85238e-08
0.00110112 -0.96 8.73696e-08 0.00110127 -0.95625 8.62135e-08 0.00110143 -0.9525 8.50477e-08 0.0011016
-0.94875 8.38895e-08 0.00110177 -0.945 8.27309e-08 0.00110194 -0.94125 8.15722e-08 0.00110211 -0.9375
8.0414e-08 0.00110228 -0.93375 7.92408e-08 0.00110246 -0.93 7.80828e-08 0.00110264 -0.92625 7.69244e-08
0.00110281 -0.9225 7.57612e-08 0.00110299 -0.91875 7.45893e-08 0.00110317 -0.915 7.3394e-08 0.00110335
-0.91125 7.22131e-08 0.00110354 -0.9075 7.10318e-08 0.00110372 -0.90375 6.98318e-08 0.00110391 -0.9
6.85959e-08 0.0011041 -0.89625 6.73104e-08 0.00110429 -0.8925 6.59857e-08 0.00110449 -0.88875 6.46075e-08
0.00110469 -0.885 6.32012e-08 0.00110489 -0.88125 6.17944e-08 0.00110509 -0.8775 6.03824e-08 0.00110529
-0.87375 5.89347e-08 0.0011055 -0.87 5.74461e-08 0.00110571 -0.86625 5.59359e-08 0.00110593 -0.8625
5.44251e-08 0.00110614 -0.85875 5.29097e-08 0.00110636 -0.855 5.13725e-08 0.00110658 -0.85125 4.98093e-08
0.00110681 -0.8475 4.8232e-08 0.00110703 -0.84375 4.6654e-08 0.00110726 -0.84 4.50652e-08 0.00110749
-0.83625 4.34668e-08 0.00110773 -0.8325 4.18482e-08 0.00110797 -0.82875 4.02187e-08 0.00110821 -0.825
3.85884e-08 0.00110845 -0.82125 3.69549e-08 0.0011087 -0.8175 3.52963e-08 0.00110895 -0.81375 3.36097e-08
0.00110921 -0.81 3.1908e-08 0.00110947 -0.80625 3.02054e-08 0.00110973 -0.8025 2.85e-08 0.00110999
-0.79875 2.6761e-08 0.00111025 -0.795 2.4986e-08 0.00111053 -0.79125 2.31913e-08 0.00111081 -0.7875
2.13957e-08 0.00111108 -0.78375 1.95939e-08 0.00111136 -0.78 1.77655e-08 0.00111165 -0.77625 1.5905e-08
0.00111194 -0.7725 1.40268e-08 0.00111224 -0.76875 1.21476e-08 0.00111254 -0.765 1.02642e-08 0.00111284
-0.76125 8.3578e-09 0.00111314 -0.7575 6.4251e-09 0.00111346 -0.75375 4.47766e-09 0.00111378 -0.75
2.5291e-09 0.0011141 -0.749027 2.02328e-09 0.00111418 -0.748054 1.51619e-09 0.00111426 -0.747082 1.00777e-09
0.00111435 -0.746109 4.98022e-10 0.00111443 -0.745161 1.37285e-17 0.00111452 -0.742379 -1.46527e-09 0.00111476
-0.739596 -2.9414e-09 0.00111501 -0.736814 -4.42521e-09 0.00111527 -0.734032 -5.9097e-09 0.00111552 -0.73125
-7.39486e-09 0.00111578 -0.7275 -9.3954e-09 0.00111612 -0.72375 -1.14142e-08 0.00111647 -0.72 -1.3449e-08
0.00111684 -0.71625 -1.54931e-08 0.0011172 -0.7125 -1.75386e-08 0.00111757 -0.70875 -1.95799e-08 0.00111794
-0.705 -2.16434e-08 0.00111832 -0.70125 -2.37233e-08 0.00111871 -0.6975 -2.58129e-08 0.00111911 -0.69375
-2.7904e-08 0.0011195 -0.69 -2.99951e-08 0.0011199 -0.68625 -3.21044e-08 0.00112031 -0.6825 -3.42298e-08
0.00112073 -0.67875 -3.63649e-08 0.00112115 -0.675 -3.85017e-08 0.00112158 -0.67125 -4.06382e-08 0.001122
-0.6675 -4.27927e-08 0.00112244 -0.66375 -4.49623e-08 0.00112289 -0.66 -4.71413e-08 0.00112335 -0.65625
-4.9322e-08 0.00112381 -0.6525 -5.14858e-08 0.00112427 -0.64875 -5.36933e-08 0.00112474 -0.645 -5.59245e-08
0.00112523 -0.64125 -5.81701e-08 0.00112572 -0.6375 -6.04176e-08 0.00112621 -0.63375 -6.26646e-08 0.0011267
-0.63 -6.49409e-08 0.00112721 -0.62625 -6.72421e-08 0.00112773 -0.6225 -6.95587e-08 0.00112826 -0.61875
-7.18773e-08 0.00112879 -0.615 -7.41957e-08 0.00112932 -0.61125 -7.65337e-08 0.00112987 -0.6075 -7.88864e-08
0.00113043 -0.60375 -8.12488e-08 0.001131 -0.6 -8.36134e-08 0.00113157 -0.59625 -8.59779e-08 0.00113214
-0.5925 -8.83506e-08 0.00113271 -0.58875 -9.07258e-08 0.00113328 -0.585 -9.31092e-08 0.00113386 -0.58125
-9.55052e-08 0.00113446 -0.5775 -9.78643e-08 0.00113507 -0.57375 -1.0028e-07 0.00113569 -0.57 -1.02698e-07
0.0011363 -0.56625 -1.05128e-07 0.00113693 -0.5625 -1.07578e-07 0.00113757 -0.55875 -1.09986e-07 0.00113823
-0.555 -1.12463e-07 0.00113889 -0.55125 -1.14943e-07 0.00113955 -0.5475 -1.17438e-07 0.00114022 -0.54375
-1.19957e-07 0.00114091 -0.54 -1.22497e-07 0.00114161 -0.53625 -1.25049e-07 0.00114232 -0.5325 -1.27604e-07
0.00114303 -0.52875 -1.30172e-07 0.00114375 -0.525 -1.32759e-07 0.00114449 -0.52125 -1.35275e-07 0.00114524
-0.5175 -1.37892e-07 0.001146 -0.51375 -1.40514e-07 0.00114676 -0.51 -1.43147e-07 0.00114753 -0.50625
-1.45799e-07 0.00114832 -0.5025 -1.4836e-07 0.00114913 -0.49875 -1.51044e-07 0.00114994 -0.495 -1.53732e-07
0.00115075 -0.49125 -1.56435e-07 0.00115157 -0.4875 -1.59161e-07 0.00115241 -0.48375 -1.61911e-07 0.00115327
-0.48 -1.64678e-07 0.00115413 -0.47625 -1.67449e-07 0.00115499 -0.4725 -1.70239e-07 0.00115586 -0.46875
-1.73054e-07 0.00115675 -0.465 -1.75899e-07 0.00115766 -0.46125 -1.78763e-07 0.00115857 -0.4575 -1.81632e-07
0.00115948 -0.45375 -1.84513e-07 0.0011604 -0.45 -1.87411e-07 0.00116134 -0.44625 -1.90331e-07 0.00116229
-0.4425 -1.93272e-07 0.00116325 -0.43875 -1.96219e-07 0.0011642 -0.435 -1.99169e-07 0.00116517 -0.43125
-2.02121e-07 0.00116614 -0.4275 -2.04849e-07 0.00116713 -0.42375 -2.07835e-07 0.00116812 -0.42 -2.10827e-07
0.00116911 -0.41625 -2.13822e-07 0.00117011 -0.4125 -2.16818e-07 0.00117111 -0.40875 -2.19543e-07 0.00117212
-0.405 -2.22578e-07 0.00117313 -0.40125 -2.25619e-07 0.00117414 -0.3975 -2.28664e-07 0.00117515 -0.39375
-2.31712e-07 0.00117616 -0.39 -2.3478e-07 0.00117717 -0.38625 -2.37876e-07 0.00117817 -0.3825 -2.4098e-07
0.00117918 -0.37875 -2.44084e-07 0.00118018 -0.375 -2.47185e-07 0.00118117 -0.37125 -2.50307e-07 0.00118213
-0.3675 -2.53461e-07 0.0011831 -0.36375 -2.56622e-07 0.00118407 -0.36 -2.5977e-07 0.00118501 -0.35625
-2.62894e-07 0.00118592 -0.3525 -2.65524e-07 0.00118679 -0.34875 -2.68689e-07 0.00118766 -0.345 -2.71863e-07
0.00118854 -0.34125 -2.75012e-07 0.00118936 -0.3375 -2.78124e-07 0.00119012 -0.33375 -2.81238e-07 0.00119082
-0.33 -2.8439e-07 0.00119152 -0.32625 -2.8755e-07 0.00119222 -0.3225 -2.9068e-07 0.00119284 -0.31875
-2.93762e-07 0.00119337 -0.315 -2.96847e-07 0.00119379 -0.31125 -2.99974e-07 0.0011942 -0.3075 -3.03111e-07
0.00119462 -0.30375 -3.06206e-07 0.00119493 -0.3 -3.0924e-07 0.00119508 -0.29625 -3.1141e-07 0.00119507
-0.2925 -3.14371e-07 0.00119482 -0.28875 -3.17219e-07 0.00119435 -0.285 -3.19986e-07 0.0011937 -0.28125
-3.2276e-07 0.00119306 -0.2775 -3.24588e-07 0.00119241 -0.27375 -3.27257e-07 0.00119143 -0.27 -3.29694e-07
0.00119012 -0.26625 -3.31966e-07 0.00118856 -0.2625 -3.34243e-07 0.00118701 -0.25875 -3.35408e-07 0.00118546
-0.255 -3.37498e-07 0.00118343 -0.25125 -3.39259e-07 0.00118092 -0.2475 -3.40789e-07 0.00117807 -0.24375
-3.42324e-07 0.00117523 -0.24 -3.43981e-07 0.0011724 -0.23625 -3.45196e-07 0.00116894 -0.2325 -3.45924e-07
0.00116484 -0.22875 -3.4633e-07 0.00116034 -0.225 -3.46742e-07 0.00115585 -0.22125 -3.45679e-07 0.00115138
-0.2175 -3.45659e-07 0.00114605 -0.21375 -3.45047e-07 0.00113987 -0.21 -3.4408e-07 0.00113318 -0.20625
-3.43124e-07 0.00112654 -0.2025 -3.40557e-07 0.00111994 -0.19875 -3.39151e-07 0.00111213 -0.195 -3.3705e-07
0.00110313 -0.19125 -3.34595e-07 0.00109355 -0.1875 -3.32167e-07 0.00108406 -0.18375 -3.29876e-07 0.00107466
-0.18 -3.26418e-07 0.00106373 -0.17625 -3.21777e-07 0.00105131 -0.1725 -3.16683e-07 0.00103836 -0.16875
-3.11653e-07 0.0010256 -0.165 -3.06831e-07 0.00101301 -0.16125 -3.0031e-07 0.00099864 -0.1575 -2.921e-07
0.000982528 -0.15375 -2.83539e-07 0.000966176 -0.15 -2.75114e-07 0.000950125 -0.14625 -2.66955e-07 0.000934371
-0.1425 -2.55572e-07 0.000916615 -0.13875 -2.41023e-07 0.000896925 -0.135 -2.26462e-07 0.000877494 -0.13125
-2.12183e-07 0.000858521 -0.1275 -1.96803e-07 0.000839994 -0.12375 -1.80184e-07 0.000819397 -0.12 -1.61333e-07
0.00079714 -0.11625 -1.42932e-07 0.000775525 -0.1125 -1.24966e-07 0.000754532 -0.10875 -1.06584e-07 0.00073414
-0.105 -8.40698e-08 0.000711723 -0.10125 -5.86791e-08 0.000688343 -0.0975 -3.39962e-08 0.000665756 -0.0937499
-9.99419e-09 0.000643934 -0.0934269 -7.98318e-09 0.000642118 -0.0931038 -5.95774e-09 0.00064029 -0.0927807 -3.91813e-09
0.00063845 -0.0924577 -1.86442e-09 0.000636599 -0.0921569 6.08332e-11 0.000634865 -0.0887255 2.21611e-08 0.00061497
-0.0852941 4.58068e-08 0.000593822 -0.0818627 6.89226e-08 0.000573283 -0.0784313 9.13871e-08 0.000553458 -0.0749999
1.13224e-07 0.000534322 -0.0712499 1.35665e-07 0.000514135 -0.0674999 1.55745e-07 0.000493857 -0.0637499 1.7482e-07
0.000474226 -0.0599999 1.93314e-07 0.000455362 -0.0562499 2.11252e-07 0.000437237 -0.0524999 2.28669e-07 0.000419821
-0.0487498 2.4798e-07 0.000404742 -0.0449998 2.6679e-07 0.000390186 -0.0412498 2.85116e-07 0.000376138 -0.0374998
3.02976e-07 0.000362581 -0.0337498 3.18502e-07 0.000349498 -0.0299998 3.37515e-07 0.000340859 -0.0262498 3.56234e-07
0.000332426 -0.0224998 3.74666e-07 0.000324193 -0.0187499 3.92818e-07 0.000316156 -0.0149999 4.08393e-07 0.000308312
-0.0112499 4.21594e-07 0.000304871 -0.0074999 4.34749e-07 0.000301467 -0.00374991 4.47858e-07 0.000298099 6.11904e-08
4.60923e-07 0.000294768 0.00375005 4.73821e-07 0.000291472 0.00750005 4.86428e-07 0.000288213 0.01125 4.98982e-07
0.000284989 0.015 5.11483e-07 0.000281799 0.01875 5.23933e-07 0.000278644 0.0225 5.30999e-07 0.000277594
0.02625 5.37847e-07 0.000276548 0.03 5.44705e-07 0.000275506 0.03375 5.51574e-07 0.000274467 0.0375
5.58455e-07 0.000273432 0.04125 5.63808e-07 0.000272931 0.045 5.68897e-07 0.000272431 0.04875 5.73999e-07
0.000271932 0.0525 5.79113e-07 0.000271434 0.05625 5.84239e-07 0.000270937 0.06 5.86569e-07 0.000270725
0.06375 5.90649e-07 0.000270513 0.0675 5.9474e-07 0.000270301 0.07125 5.98841e-07 0.00027009 0.075
6.02953e-07 0.000269878 0.07875 6.07516e-07 0.000269816 0.0825 6.11868e-07 0.000269753 0.08625 6.1623e-07
0.000269691 0.09 6.20604e-07 0.000269629 0.09375 6.24988e-07 0.000269567 0.0975 6.32058e-07 0.000269556
0.10125 6.38971e-07 0.000269545 0.105 6.45902e-07 0.000269535 0.10875 6.5285e-07 0.000269524 0.1125
[...]
POINT_DATA 19717
FIELD attributes 3
age 1 19717 float
0 7.3014e-05 0.000146032 0.000219053 0.000292078 0.000365107 0.000553984 0.000742861 0.000931738 0.00112063 0.00130956
0.00149852 0.00168747 0.00187643 0.00206541 0.00225442 0.00244347 0.00263251 0.00282156 0.00301062 0.00319972
0.00338886 0.003578 0.00376714 0.0039563 0.0041455 0.00433473 0.00452397 0.00471321 0.00490247 0.00509178
0.00528112 0.00547051 0.00565995 0.00584941 0.00603887 0.00622833 0.00641784 0.0066074 0.00679698 0.00698656
0.00717615 0.00736578 0.00755547 0.00774519 0.0079349 0.00812462 0.00831439 0.00850422 0.00869407 0.00888393
0.00907379 0.00926371 0.00945369 0.0096437 0.00983371 0.0100237 0.0102138 0.0104039 0.0105941 0.0107843
0.0109745 0.0111647 0.011355 0.0115454 0.0117357 0.0119261 0.0121165 0.012307 0.0124976 0.0126881
0.0127376 0.012787 0.0128364 0.0128859 0.0129341 0.0130755 0.013217 0.0133585 0.0135001 0.0136416
0.0138323 0.0140232 0.0142141 0.0144051 0.0145961 0.0147871 0.0149781 0.0151693 0.0153605 0.0155518
0.015743 0.0159343 0.0161258 0.0163173 0.0165088 0.0167003 0.0168919 0.0170836 0.0172754 0.0174672
0.017659 0.0178509 0.0180429 0.018235 0.0184271 0.0186192 0.0188115 0.0190038 0.0191963 0.0193887
0.0195812 0.0197738 0.0199665 0.0201594 0.0203522 0.020545 0.0207379 0.0209307 0.0211236 0.0213167
0.02151 0.0217033 0.0218965 0.0220899 0.0222834 0.0224771 0.0226708 0.0228646 0.0230584 0.0232524
0.0234466 0.0236408 0.0238351 0.0240294 0.024224 0.0244187 0.0246135 0.0248083 0.0250032 0.0251984
0.0253937 0.0255891 0.0257845 0.0259801 0.0261759 0.0263719 0.026568 0.0267641 0.0269603 0.0271568
0.0273536 0.0275504 0.0277472 0.0279443 0.0281416 0.0283392 0.0285368 0.0287345 0.0289323 0.0291305
0.0293291 0.0295276 0.0297262 0.029925 0.0301241 0.0303237 0.0305232 0.0307228 0.0309226 0.0311229
0.0313235 0.0315242 0.0317248 0.0319258 0.0321272 0.0323291 0.032531 0.0327329 0.0329351 0.0331378
0.033341 0.0335442 0.0337474 0.033951 0.0341552 0.0343598 0.0345644 0.0347691 0.0349741 0.0351798
0.0353859 0.0355921 0.0357983 0.0360049 0.0362121 0.0364199 0.0366282 0.0368372 0.0370466 0.037256
0.0374654 0.0376754 0.037886 0.0380969 0.0383079 0.0385188 0.0387303 0.0389423 0.0391547 0.039367
0.0395792 0.0397919 0.0400051 0.0402185 0.0404318 0.0406449 0.0408584 0.0410722 0.0412861 0.0414998
0.0417133 0.0419268 0.0421404 0.0423538 0.042567 0.0427799 0.0429925 0.0432045 0.0434163 0.0436276
0.0438387 0.0440488 0.044258 0.0444667 0.044675 0.0448829 0.0450893 0.0452942 0.0454985 0.0457025
0.0459061 0.0461076 0.0463071 0.0465062 0.0467051 0.0469036 0.0470993 0.0472932 0.0474868 0.0476803
0.0476969 0.0477136 0.0477301 0.0477467 0.0477621 0.0479376 0.0481103 0.0482828 0.0484553 0.0486277
0.0488162 0.0490009 0.0491852 0.0493696 0.0495541 0.0497387 0.0499199 0.0501014 0.0502831 0.050465
0.0506471 0.0508271 0.0510072 0.0511876 0.0513681 0.0515487 0.0517287 0.0519088 0.0520889 0.0522691
0.0524494 0.0526297 0.0528102 0.0529907 0.0531713 0.053352 0.0535327 0.0537134 0.0538942 0.054075
0.0542561 0.0544372 0.0546183 0.0547994 0.0549805 0.055162 0.0553435 0.0555249 0.0557064 0.0558879
0.0560697 0.0562514 0.0564332 0.056615 0.0567968 0.0569789 0.057161 0.057343 0.0575251 0.0577072
0.0578896 0.0580719 0.0582543 0.0584367 0.058619 0.0588017 0.0589844 0.059167 0.0593497 0.0595323
0.0597153 0.0598983 0.0600812 0.0602642 0.0604471 0.0606304 0.0608137 0.0609969 0.0611802 0.0613635
0.0615471 0.0617306 0.0619142 0.0620978 0.0622813 0.0624652 0.0626491 0.0628329 0.0630168 0.0632006
0.0633848 0.0635689 0.0637531 0.0639372 0.0641213 0.0643057 0.0644901 0.0646745 0.0648589 0.0650433
0.0652279 0.0654125 0.0655972 0.0657818 0.0659664 0.0661512 0.0663361 0.0665209 0.0667057 0.0668906
0.0670756 0.0672608 0.067446 0.0676312 0.0678164 0.0680016 0.0681869 0.0683722 0.0685576 0.0687429
0.068827 0.0689111 0.0689952 0.0690793 0.0691324 0.06924 0.0693475 0.0694551 0.0695627 0.0696702
0.0698557 0.0700413 0.0702269 0.0704124 0.070598 0.0707836 0.0709693 0.071155 0.0713407 0.0715264
0.0717121 0.0718978 0.0720836 0.0722693 0.0724551 0.0726409 0.0728267 0.0730125 0.0731984 0.0733842
0.07357 0.0737559 0.0739417 0.0741276 0.0743135 0.0744994 0.0746852 0.0748711 0.075057 0.0752429
0.0754288 0.0756147 0.0758006 0.0759865 0.0761724 0.0763582 0.0765441 0.07673 0.0769159 0.0771017
0.0772876 0.0774734 0.0776593 0.0778451 0.0780309 0.0782168 0.0784026 0.0785884 0.0787741 0.0789599
0.0791457 0.0793315 0.0795172 0.079703 0.0798887 0.0800745 0.0802602 0.080446 0.0806317 0.0808174
0.0810032 0.0811889 0.0813747 0.0815604 0.0817462 0.0819319 0.0821177 0.0823034 0.0824891 0.0826749
0.0828607 0.0830465 0.0832322 0.083418 0.0836038 0.0837896 0.0839755 0.0841613 0.0843471 0.084533
0.0847189 0.0849048 0.0850907 0.0852765 0.0854624 0.0856484 0.0858344 0.0860203 0.0862063 0.0863922
0.0865783 0.0867643 0.0869503 0.0871363 0.0873223 0.0875084 0.0876945 0.0878806 0.0880667 0.0882527
0.0884389 0.088625 0.0888111 0.0889973 0.0891834 0.0893696 0.0895558 0.089742 0.0899281 0.0901143
0.0903006 0.0904868 0.090673 0.0908592 0.0910455 0.0912317 0.091418 0.0916043 0.0917905 0.0919768
0.0921631 0.0923494 0.0925357 0.092722 0.0929083 0.0930947 0.093281 0.0934673 0.0936537 0.09384
0.0940264 0.0942127 0.0943991 0.0945855 0.0947718 0.0949582 0.0951446 0.095331 0.0955174 0.0957038
0.0958902 0.0960767 0.0962631 0.0964495 0.096636 0.0968224 0.097009 0.0971955 0.097382 0.0975685
0.097755 0.0979416 0.0981281 0.0983147 0.0985013 0.0986878 0.0988745 0.0990611 0.0992477 0.0994344
0.099621 0.0998077 0.0999944 0.100181 0.100368 0.100554 0.100741 0.100928 0.101115 0.101302
0.101489 0.101676 0.101863 0.10205 0.102237 0.102424 0.102612 0.102799 0.102987 0.103174
0.103362 0.10355 0.103738 0.103926 0.104115 0.104303 0.104492 0.104681 0.10487 0.105059
0.105248 0.105438 0.105628 0.105817 0.106007 0.106197 0.106388 0.106578 0.106769 0.10696
0.10715 0.107342 0.107533 0.107724 0.107915 0.108106 0.108298 0.108489 0.108681 0.108872
0.109064 0.109255 0.109447 0.109639 0.10983 0.110022 0.110213 0.110405 0.110597 0.110788
0.11098 0.111171 0.111363 0.111554 0.111746 0.111937 0.112129 0.11232 0.112511 0.112703
0.112894 0.113085 0.113277 0.113468 0.113659 0.11385 0.114041 0.114232 0.114424 0.114615
0.114806 0.114997 0.115188 0.115379 0.11557 0.115761 0.115952 0.116143 0.116333 0.116524
0.116715 0.116906 0.117097 0.117288 0.117478 0.117669 0.11786 0.118051 0.118242 0.118432
0.118623 0.118814 0.119004 0.119195 0.119386 0.119576 0.119767 0.119958 0.120148 0.120339
0.120529 0.12072 0.12091 0.121101 0.121291 0.121482 0.121672 0.121863 0.122053 0.122244
0.122434 0.122624 0.122815 0.123005 0.123195 0.123386 0.123576 0.123766 0.123957 0.124147
0.124337 0.124527 0.124717 0.124907 0.125098 0.125288 0.125478 0.125668 0.125858 0.126048
0.126238 0.126428 0.126618 0.126808 0.126998 0.127187 0.127377 0.127567 0.127757 0.127947
0.128137 0.128326 0.128516 0.128706 0.128896 0.129085 0.129275 0.129465 0.129655 0.129844
0.130034 0.130223 0.130413 0.130603 0.130792 0.130982 0.131171 0.131361 0.13155 0.13174
0.131929 0.132119 0.132308 0.132498 0.132687 0.132876 0.133066 0.133255 0.133444 0.133634
0.133823 0.134012 0.134201 0.134391 0.13458 0.134769 0.134958 0.135147 0.135336 0.135525
0.135714 0.135903 0.136092 0.136281 0.136471 0.136659 0.136848 0.137037 0.137226 0.137415
0.137604 0.137793 0.137981 0.13817 0.138359 0.138548 0.138736 0.138925 0.139114 0.139303
0.139491 0.13968 0.139868 0.140057 0.140246 0.140434 0.140623 0.140811 0.141 0.141188
0.141377 0.141565 0.141754 0.141942 0.142131 0.142319 0.142507 0.142696 0.142884 0.143073
0.143261 0.143449 0.143638 0.143826 0.144015 0.144203 0.144391 0.144579 0.144768 0.144956
0.145144 0.145332 0.145521 0.145709 0.145897 0.146085 0.146273 0.146462 0.14665 0.146838
0.147026 0.147214 0.147403 0.147591 0.147779 0.147967 0.148155 0.148343 0.148532 0.14872
0.148908 0.149096 0.149284 0.149472 0.14966 0.149848 0.150036 0.150225 0.150413 0.150601
0.150789 0.150977 0.151165 0.151353 0.151541 0.151917 0.152293 0.152668 0.153044 0.15342
0.154171 0.154921 0.155672 0.156423 0.157174 0.158674 0.160175 0.161676 0.163177 0.164677
0.166178 0.167678 0.169179 0.170679 0.17218 0.17518 0.17818 0.181181 0.184181 0.187182
0.193182 0.199182 0.205182 0.211182 0.217183 0.223183 0.229183 0.235183 0.241183 0.247183
0.253183 0.259183 0.265184 0.271184 0.277184 0.283184 0.289184 0.295184 0.301184 0.307184
0.313184 0.319184 0.325184 0.331184 0.337184 0.343184 0.349184 0.355185 0.361185 0.367185
0.373185 0.379185 0.385185 0.391185 0.397185 0.403185 0.403382 0 7.36857e-05 0.000147375
0.000221069 0.000294766 0.000368468 0.000559087 0.00074974 0.000940427 0.00113115 0.0013219 0.00151269 0.00170351
0.00189437 0.00208527 0.0022762 0.00246716 0.00265817 0.00284921 0.00304029 0.0032314 0.00342256 0.00361375
0.00380499 0.00399626 0.00418758 0.00437893 0.00457033 0.00476178 0.00495326 0.00514479 0.00533637 0.00552799
0.00571965 0.00591137 0.00610313 0.00623695 0.00637079 0.00650465 0.00663854 0.00676067 0.00682107 0.00688147
0.00694188 0.00700229 0.00706271 0.00725477 0.00744688 0.00763904 0.00783126 0.00802353 0.00821586 0.00840824
0.00860068 0.00879318 0.00898573 0.00917835 0.00937102 0.00956376 0.00975656 0.00994942 0.0101423 0.0103353
0.0105284 0.0107215 0.0109147 0.011108 0.0113013 0.0114947 0.0116882 0.0118817 0.0120754 0.0122691
0.0124629 0.0126567 0.0128506 0.0130447 0.0132388 0.0134329 0.0136272 0.0138216 0.014016 0.0142105
0.0144052 0.0145999 0.0147947 0.0149896 0.0151846 0.0153797 0.0155749 0.0157702 0.0159656 0.0161611
0.0163567 0.0165524 0.0167483 0.0169442 0.0171403 0.0173364 0.0175327 0.0177291 0.0179257 0.0181223
0.0183191 0.0185161 0.0187131 0.0189103 0.0191076 0.0193051 0.0195027 0.0197004 0.0198983 0.0200963
0.0202945 0.0204929 0.0206914 0.02089 0.0210889 0.0212879 0.021487 0.0216864 0.0218859 0.0220856
0.0222855 0.0224855 0.0226858 0.0228862 0.0230869 0.0232877 0.0234888 0.02369 0.0238915 0.0240932
0.0242951 0.0244973 0.0246996 0.0249022 0.0251051 0.0253082 0.0255116 0.0257152 0.025919 0.0261232
0.0263276 0.0265323 0.0267372 0.0269425 0.0271481 0.0273539 0.0275601 0.0277666 0.0279734 0.0281805
0.028388 0.0285959 0.0288041 0.0290126 0.0292215 0.0294308 0.0296405 0.0298505 0.030061 0.0302719
0.0304832 0.0306949 0.0309071 0.0311197 0.0313328 0.0315464 0.0317605 0.031975 0.0321901 0.0324056
0.0326218 0.0328384 0.0330556 0.0332734 0.0334918 0.0337107 0.0339303 0.0341505 0.0343714 0.0345929
0.0348151 0.035038 0.0352616 0.0354859 0.0357109 0.0359367 0.0361633 0.0363907 0.0366189 0.036848
0.0370779 0.0373087 0.0375404 0.037773 0.0380066 0.0382411 0.0384766 0.0387131 0.0389506 0.0391892
0.0394289 0.0396698 0.0399117 0.0401547 0.0403989 0.0406442 0.0408907 0.0411386 0.0413876 0.041638
0.0418896 0.0421426 0.0423969 0.0426524 0.0429091 0.043167 0.0434261 0.043687 0.0439491 0.0442123
0.0444767 0.0447422 0.0450096 0.0452775 0.045546 0.045815 0.0460844 0.0463564 0.0464869 0.0466174
0.0467479 0.0468781 0.0469589 0.0471102 0.0472612 0.0474122 0.0475629 0.0477146 0.0479856 0.0482548
0.0485222 0.0487877 0.0490563 0.0492048 0.049352 0.0494981 0.049643 0.0497542 0.0498728 0.0499906
0.0501076 0.0502239 0.0503404 0.050588 0.0508305 0.0510681 0.0513009 0.0515303 0.0515471 0.0515638
0.0515805 0.0515972 0.0516139 0.0518193 0.0520201 0.0522167 0.052409 0.0525953 0.052708 0.0528189
0.052928 0.0530358 0.0531715 0.0532447 0.0533173 0.0533892 0.0534605 0.0535308 0.0537053 0.0538762
0.0540437 0.0542079 0.0543657 0.0545053 0.0546434 0.05478 0.0549151 0.0551325 0.0551489 0.0551652
0.0551816 0.0551979 0.0552168 0.0553466 0.0554759 0.0556046 0.0557328 0.0558598 0.0560029 0.0561461
0.0562894 0.0564329 0.0565762 0.0567197 0.0568635 0.0570076 0.057152 0.0572968 0.057442 0.0575876
0.0577335 0.0578798 0.0580264 0.0581734 0.0583206 0.0584682 0.0586161 0.0587644 0.0589129 0.0590618
0.059211 0.0593605 0.0595103 0.0596605 0.0598109 0.0599616 0.0601126 0.0602639 0.0604156 0.0605675
0.0607198 0.0608723 0.0610252 0.0611784 0.0613319 0.0614858 0.06164 0.0617945 0.0619493 0.0621045
0.0622601 0.062416 0.0625722 0.0627288 0.0628857 0.063043 0.0632006 0.0633586 0.0635169 0.0636756
0.0638346 0.063994 0.0641538 0.0643139 0.0644743 0.064635 0.0647961 0.0649575 0.0651193 0.0652814
0.0654439 0.0656066 0.0657697 0.0659331 0.0660968 0.0662607 0.066425 0.0665896 0.0667545 0.0669197
0.0670852 0.0672509 0.0674169 0.0675832 0.0677497 0.0679165 0.0680836 0.0682509 0.0684185 0.0685863
0.0687543 0.0689226 0.0690911 0.0692598 0.0694288 0.0695979 0.0697673 0.0699368 0.0701066 0.0702766
0.0704468 0.0706172 0.0707877 0.0709585 0.0711294 0.0713004 0.0714717 0.0716431 0.0718147 0.0719865
0.0721584 0.0723304 0.0725027 0.072675 0.0728475 0.0730201 0.0731928 0.0733657 0.0735387 0.0737118
0.0738851 0.0740584 0.0742319 0.0744054 0.0745791 0.0747527 0.0749265 0.0751004 0.0752744 0.0754484
0.0756225 0.0757967 0.0759709 0.0761451 0.0763194 0.0764937 0.076668 0.0768423 0.0770167 0.077191
0.0773654 0.0775398 0.0777142 0.0778885 0.0780628 0.0782371 0.0784113 0.0785855 0.0787597 0.0789339
0.079108 0.0792821 0.0794562 0.0796302 0.0798041 0.079978 0.0801519 0.0803257 0.0804995 0.0806733
0.0808471 0.0810209 0.0811947 0.0813684 0.0815422 0.081716 0.0818898 0.0820637 0.0822376 0.0824115
0.0825855 0.0827596 0.0829338 0.083108 0.0832823 0.0834567 0.0836311 0.0838057 0.0839804 0.0841551
0.0843301 0.0845051 0.0846802 0.0848554 0.0850308 0.0852062 0.0853818 0.0855575 0.0857333 0.0859092
0.0860853 0.0862615 0.0864378 0.0866143 0.0867908 0.0869674 0.0871442 0.0873211 0.0874981 0.0876752
0.0878525 0.0880298 0.0882073 0.0883849 0.0885626 0.0887403 0.0889182 0.0890962 0.0892743 0.0894525
0.0896309 0.0898093 0.0899878 0.0901664 0.0903451 0.0905239 0.0907027 0.0908817 0.0910608 0.0912399
0.0914192 0.0915985 0.091778 0.0919575 0.092137 0.0923167 0.0924964 0.0926762 0.0928561 0.0930361
0.0932162 0.0933964 0.0935766 0.0937569 0.0939373 0.0941178 0.0942983 0.0944789 0.0946596 0.0948405
0.0950214 0.0952023 0.0953834 0.0955645 0.0957458 0.0959271 0.0961085 0.09629 0.0964716 0.0966533
0.0968351 0.097017 0.0971991 0.0973813 0.0975636 0.0977461 0.0979287 0.0981114 0.0982948 0.0984783
0.098662 0.0988458 0.0990298 0.0992129 0.0993962 0.0995795 0.0997629 0.0999464 0.10013 0.100314
0.100498 0.100683 0.100867 0.101052 0.101238 0.101424 0.10161 0.101797 0.101985 0.102173
0.102363 0.102553 0.102745 0.102937 0.103131 0.103326 0.103522 0.10372 0.103919 0.10412
0.104323 0.104528 0.104734 0.104943 0.105153 0.105364 0.105578 0.105794 0.106013 0.106234
0.106458 0.106684 0.106912 0.107143 0.107376 0.107611 0.107848 0.108089 0.108333 0.10858
0.10883 0.109083 0.109339 0.109598 0.109858 0.110122 0.110388 0.110658 0.110931 0.111207
0.111485 0.111766 0.11205 0.112336 0.112625 0.112916 0.113209 0.113504 0.113802 0.114102
0.114403 0.114707 0.115012 0.115318 0.115626 0.115935 0.116245 0.116557 0.116869 0.117182
0.117496 0.11781 0.118125 0.11844 0.118757 0.119073 0.11939 0.119707 0.120024 0.12034
0.120657 0.120974 0.121291 0.121427 0.121563 0.1217 0.121836 0.12197 0.122151 0.122331
0.122512 0.122692 0.122872 0.123186 0.123501 0.123815 0.124128 0.12444 0.124752 0.125063
0.125373 0.125682 0.12599 0.126298 0.126605 0.126912 0.127219 0.127524 0.127828 0.128131
0.128433 0.128735 0.129037 0.129337 0.129638 0.129938 0.130237 0.130536 0.130833 0.13113
0.131427 0.131723 0.132018 0.132313 0.132607 0.132901 0.133195 0.133488 0.133647 0.133806
0.133965 0.134124 0.1343 0.134428 0.134557 0.134686 0.134814 0.134943 0.135232 0.135521
0.135809 0.136096 0.136383 0.136669 0.136955 0.13724 0.137525 0.137808 0.138091 0.138374
0.138656 0.138937 0.139218 0.139498 0.139778 0.140058 0.140337 0.140616 0.140893 0.141171
0.141448 0.141724 0.142 0.142275 0.14255 0.142825 0.143099 0.143373 0.143646 0.143918
0.144189 0.14446 0.144731 0.145 0.14527 0.14554 0.145809 0.146077 0.146343 0.146609
0.146874 0.147139 0.147403 0.147666 0.147929 0.148192 0.148454 0.148715 0.148975 0.149234
0.149492 0.149749 0.150006 0.150262 0.150518 0.150773 0.151028 0.151282 0.151534 0.151786
0.152037 0.152288 0.152538 0.152787 0.153036 0.153284 0.153532 0.153779 0.154024 0.154269
0.154514 0.154758 0.155001 0.155244 0.155486 0.155727 0.155968 0.156209 0.156448 0.156687
0.156925 0.157163 0.1574 0.157637 0.157873 0.158109 0.158344 0.158579 0.158812 0.159046
0.159279 0.159512 0.159744 0.159975 0.160207 0.160438 0.160668 0.160898 0.161127 0.161357
0.161585 0.161814 0.162042 0.162079 0.162116 0.162154 0.162191 0.162229 0.162419 0.162609
0.162798 0.162988 0.163177 0.1634 0.163625 0.163849 0.164073 0.164296 0.164515 0.164737
0.164957 0.165177 0.165397 0.165613 0.165831 0.166049 0.166266 0.166483 0.166697 0.166913
0.167128 0.167343 0.167557 0.167769 0.167982 0.168196 0.168408 0.168621 0.168831 0.169042
0.169254 0.169465 0.169676 0.170093 0.17051 0.170926 0.171334 0.171737 0.172525 0.173313
0.1741 0.174886 0.175667 0.177201 0.178722 0.180242 0.181761 0.183279 0.184793 0.186308
0.187823 0.189337 0.19085 0.193869 0.196888 0.199906 0.202922 0.205937 0.211947 0.217958
0.223968 0.229977 0.235986 0.241989 0.247995 0.254001 0.260007 0.266012 0.272014 0.278019
0.284024 0.290028 0.296033 0.302034 0.308038 0.314042 0.320046 0.32605 0.332051 0.338054
0.344058 0.350061 0.356064 0.362065 0.368068 0.374071 0.380074 0.386076 0.392077 0.39808
0.404082 0.410085 0.416087 0.422088 0.428164 0.429478 0 7.36618e-05 0.000147328 0.000220999
0.000294675 0.000368356 0.00055892 0.000749518 0.000940149 0.00113081 0.00132151 0.00151224 0.001703 0.0018938
0.00208463 0.0022755 0.0024664 0.00265734 0.00284832 0.00303933 0.00323038 0.00342147 0.00361259 0.00380376
0.00399496 0.00418621 0.00437749 0.00456882 0.00476019 0.0049516 0.00514305 0.00533455 0.00552609 0.00571767
0.0059093 0.00610098 0.00625576 0.00641058 0.00656542 0.0067203 0.00686038 0.00690033 0.00694027 0.00698022
0.00702017 0.00706012 0.00725208 0.0074441 0.00763617 0.00782829 0.00802047 0.00821269 0.00840497 0.00859731
0.00878971 0.00898216 0.00917467 0.00936724 0.00955986 0.00975255 0.0099453 0.0101381 0.010331 0.0105239
0.0107169 0.01091 0.0111031 0.0112963 0.0114896 0.011683 0.0118764 0.0120699 0.0122634 0.0124571
0.0126508 0.0128446 0.0130384 0.0132324 0.0134264 0.0136205 0.0138147 0.014009 0.0142034 0.0143978
0.0145924 0.014787 0.0149817 0.0151765 0.0153715 0.0155665 0.0157616 0.0159568 0.0161521 0.0163475
0.016543 0.0167387 0.0169344 0.0171302 0.0173262 0.0175223 0.0177185 0.0179148 0.0181112 0.0183078
0.0185044 0.0187013 0.0188982 0.0190953 0.0192925 0.0194898 0.0196873 0.0198849 0.0200827 0.0202806
0.0204786 0.0206769 0.0208752 0.0210738 0.0212724 0.0214713 0.0216703 0.0218695 0.0220689 0.0222684
0.0224682 0.0226681 0.0228682 0.0230685 0.023269 0.0234697 0.0236706 0.0238717 0.024073 0.0242746
0.0244763 0.0246783 0.0248805 0.025083 0.0252857 0.0254886 0.0256918 0.0258953 0.026099 0.026303
0.0265073 0.0267118 0.0269166 0.0271218 0.0273272 0.0275329 0.027739 0.0279454 0.0281521 0.0283591
0.0285665 0.0287743 0.0289824 0.0291908 0.0293997 0.029609 0.0298186 0.0298588 0.029899 0.0299392
0.0299794 0.0300187 0.0301891 0.0303598 0.0305308 0.0307021 0.0308737 0.0310859 0.0312987 0.031512
0.0317258 0.0319401 0.0321549 0.0323702 0.0325862 0.0328027 0.0330199 0.0332376 0.033456 0.033675
0.0338947 0.0341151 0.0343362 0.0345581 0.0347808 0.0350042 0.0352284 0.0354534 0.0356794 0.0359062
0.036134 0.0363627 0.0365924 0.0368231 0.037055 0.037288 0.0375221 0.0377573 0.0379938 0.0382316
0.0384707 0.0387112 0.0389531 0.0391966 0.0394418 0.0396886 0.039937 0.0401871 0.040439 0.040693
0.040949 0.0412071 0.0414672 0.0417299 0.0419951 0.0422629 0.0425333 0.0428069 0.0430836 0.0433635
0.0436467 0.0439335 0.0442232 0.0445171 0.0448151 0.0451174 0.0454251 0.0457351 0.0460497 0.0463688
0.0466926 0.0470266 0.0471914 0.0473577 0.0475251 0.0476936 0.0477712 0.0479712 0.0481726 0.0483751
0.0485788 0.0487904 0.0490976 0.0494072 0.0497184 0.0500286 0.0501172 0.0502321 0.0503466 0.0504608
0.0505747 0.0506929 0.0508948 0.0510945 0.0512919 0.0514869 0.0516122 0.051813 0.0520103 0.0522043
0.0523948 0.0525965 0.0526262 0.0526558 0.0526854 0.0527148 0.0527431 0.0529436 0.0531385 0.0533283