# vtk DataFile Version 2.0
tracks
ASCII
DATASET POLYDATA
POINTS 19494 float
-1.001 1e-07 0.0011 -0.99955 9.88058e-08 0.00110002 -0.9981 9.7607e-08 0.00110004 -0.99665 9.64036e-08
0.00110007 -0.9952 9.51955e-08 0.0011001 -0.99375 9.39828e-08 0.00110014 -0.99 9.08162e-08 0.00110024
-0.98625 8.76662e-08 0.00110034 -0.9825 8.45152e-08 0.00110044 -0.97875 8.13381e-08 0.00110054 -0.975
7.81105e-08 0.00110068 -0.97125 7.48178e-08 0.00110083 -0.9675 7.15386e-08 0.00110098 -0.96375 6.82583e-08
0.00110113 -0.96 6.49485e-08 0.00110128 -0.95625 6.15818e-08 0.00110145 -0.9525 5.81529e-08 0.00110162
-0.94875 5.47284e-08 0.00110179 -0.945 5.13028e-08 0.00110196 -0.94125 4.78434e-08 0.00110213 -0.9375
4.43195e-08 0.00110231 -0.93375 4.07225e-08 0.00110248 -0.93 3.71329e-08 0.00110266 -0.92625 3.3542e-08
0.00110284 -0.9225 2.99136e-08 0.00110302 -0.91875 2.62139e-08 0.0011032 -0.915 2.24377e-08 0.00110339
-0.91125 1.86653e-08 0.00110357 -0.9075 1.48915e-08 0.00110376 -0.90375 1.10762e-08 0.00110395 -0.9
7.18208e-09 0.00110414 -0.898645 5.74567e-09 0.00110421 -0.897289 4.29827e-09 0.00110428 -0.895934 2.83936e-09
0.00110435 -0.894579 1.36893e-09 0.00110442 -0.893327 1.82979e-17 0.00110449 -0.890911 -2.66003e-09 0.00110462
-0.888496 -5.35668e-09 0.00110475 -0.886081 -8.05942e-09 0.00110488 -0.883665 -1.07628e-08 0.00110501 -0.88125
-1.34669e-08 0.00110514 -0.8775 -1.76635e-08 0.00110535 -0.87375 -2.19584e-08 0.00110556 -0.87 -2.63489e-08
0.00110577 -0.86625 -3.07902e-08 0.00110599 -0.8625 -3.52334e-08 0.00110621 -0.85875 -3.96709e-08 0.00110642
-0.855 -4.42162e-08 0.00110664 -0.85125 -4.88615e-08 0.00110687 -0.8475 -5.35604e-08 0.0011071 -0.84375
-5.82614e-08 0.00110733 -0.84 -6.29602e-08 0.00110756 -0.83625 -6.77684e-08 0.0011078 -0.8325 -7.26815e-08
0.00110804 -0.82875 -7.7651e-08 0.00110829 -0.825 -8.26228e-08 0.00110853 -0.82125 -8.75779e-08 0.00110878
-0.8175 -9.26617e-08 0.00110903 -0.81375 -9.78547e-08 0.00110929 -0.81 -1.03107e-07 0.00110955 -0.80625
-1.08361e-07 0.00110981 -0.8025 -1.13593e-07 0.00111007 -0.79875 -1.18964e-07 0.00111034 -0.795 -1.24447e-07
0.00111062 -0.79125 -1.29993e-07 0.0011109 -0.7875 -1.35541e-07 0.00111118 -0.78375 -1.41084e-07 0.00111146
-0.78 -1.46753e-07 0.00111174 -0.77625 -1.52538e-07 0.00111204 -0.7725 -1.58387e-07 0.00111234 -0.76875
-1.6424e-07 0.00111264 -0.765 -1.70086e-07 0.00111294 -0.76125 -1.76064e-07 0.00111325 -0.7575 -1.82163e-07
0.00111356 -0.75375 -1.88328e-07 0.00111388 -0.75 -1.94497e-07 0.00111421 -0.74625 -2.00616e-07 0.00111453
-0.7425 -2.06913e-07 0.00111486 -0.73875 -2.1333e-07 0.0011152 -0.735 -2.19816e-07 0.00111554 -0.73125
-2.26306e-07 0.00111589 -0.7275 -2.32733e-07 0.00111623 -0.72375 -2.3935e-07 0.00111659 -0.72 -2.46087e-07
0.00111695 -0.71625 -2.52891e-07 0.00111732 -0.7125 -2.597e-07 0.00111769 -0.70875 -2.66432e-07 0.00111806
-0.705 -2.73369e-07 0.00111844 -0.70125 -2.80426e-07 0.00111883 -0.6975 -2.87552e-07 0.00111923 -0.69375
-2.94683e-07 0.00111963 -0.69 -3.01804e-07 0.00112003 -0.68625 -3.09065e-07 0.00112043 -0.6825 -3.16444e-07
0.00112086 -0.67875 -3.23893e-07 0.00112128 -0.675 -3.31346e-07 0.00112171 -0.67125 -3.38791e-07 0.00112214
-0.6675 -3.46377e-07 0.00112258 -0.66375 -3.54083e-07 0.00112303 -0.66 -3.61859e-07 0.00112349 -0.65625
-3.6964e-07 0.00112395 -0.6525 -3.77288e-07 0.00112441 -0.64875 -3.85205e-07 0.00112488 -0.645 -3.93241e-07
0.00112537 -0.64125 -4.01347e-07 0.00112586 -0.6375 -4.09461e-07 0.00112636 -0.63375 -4.17565e-07 0.00112685
-0.63 -4.25816e-07 0.00112736 -0.62625 -4.34185e-07 0.00112789 -0.6225 -4.42624e-07 0.00112842 -0.61875
-4.51072e-07 0.00112895 -0.615 -4.59512e-07 0.00112948 -0.61125 -4.68099e-07 0.00113003 -0.6075 -4.76803e-07
0.00113059 -0.60375 -4.85578e-07 0.00113116 -0.6 -4.94362e-07 0.00113173 -0.59625 -5.03139e-07 0.00113231
-0.5925 -5.1196e-07 0.00113288 -0.58875 -5.2079e-07 0.00113345 -0.585 -5.29691e-07 0.00113403 -0.58125
-5.38707e-07 0.00113463 -0.5775 -5.47559e-07 0.00113525 -0.57375 -5.56724e-07 0.00113586 -0.57 -5.65899e-07
0.00113648 -0.56625 -5.75147e-07 0.0011371 -0.5625 -5.84511e-07 0.00113775 -0.55875 -5.93664e-07 0.00113841
-0.555 -6.03186e-07 0.00113907 -0.55125 -6.12719e-07 0.00113973 -0.5475 -6.22329e-07 0.0011404 -0.54375
-6.3206e-07 0.00114109 -0.54 -6.41904e-07 0.0011418 -0.53625 -6.51805e-07 0.00114251 -0.5325 -6.61718e-07
0.00114322 -0.52875 -6.71712e-07 0.00114394 -0.525 -6.81827e-07 0.00114468 -0.52125 -6.91606e-07 0.00114544
-0.5175 -7.01904e-07 0.00114619 -0.51375 -7.12216e-07 0.00114695 -0.51 -7.22608e-07 0.00114772 -0.50625
-7.33123e-07 0.00114851 -0.5025 -7.43217e-07 0.00114932 -0.49875 -7.53925e-07 0.00115013 -0.495 -7.64649e-07
0.00115094 -0.49125 -7.75457e-07 0.00115177 -0.4875 -7.86389e-07 0.00115261 -0.48375 -7.97453e-07 0.00115347
-0.48 -8.08594e-07 0.00115433 -0.47625 -8.19754e-07 0.00115519 -0.4725 -8.31003e-07 0.00115607 -0.46875
-8.42381e-07 0.00115696 -0.465 -8.53905e-07 0.00115787 -0.46125 -8.65516e-07 0.00115878 -0.4575 -8.77147e-07
0.00115969 -0.45375 -8.88869e-07 0.00116061 -0.45 -9.00722e-07 0.00116155 -0.44625 -9.12733e-07 0.0011625
-0.4425 -9.2484e-07 0.00116345 -0.43875 -9.36969e-07 0.00116441 -0.435 -9.49189e-07 0.00116537 -0.43125
-9.61535e-07 0.00116635 -0.4275 -9.72927e-07 0.00116734 -0.42375 -9.85546e-07 0.00116833 -0.42 -9.9819e-07
0.00116932 -0.41625 -1.01093e-06 0.00117031 -0.4125 -1.02379e-06 0.00117131 -0.40875 -1.0355e-06 0.00117232
-0.405 -1.04867e-06 0.00117333 -0.40125 -1.06187e-06 0.00117434 -0.3975 -1.07517e-06 0.00117535 -0.39375
-1.08861e-06 0.00117636 -0.39 -1.10226e-06 0.00117737 -0.38625 -1.11605e-06 0.00117837 -0.3825 -1.12987e-06
0.00117938 -0.37875 -1.1438e-06 0.00118038 -0.375 -1.15786e-06 0.00118136 -0.37125 -1.17217e-06 0.00118232
-0.3675 -1.18663e-06 0.00118329 -0.36375 -1.20113e-06 0.00118426 -0.36 -1.21572e-06 0.0011852 -0.35625
-1.23043e-06 0.0011861 -0.3525 -1.24306e-06 0.00118697 -0.34875 -1.2582e-06 0.00118784 -0.345 -1.27338e-06
0.00118871 -0.34125 -1.28864e-06 0.00118953 -0.3375 -1.30401e-06 0.00119029 -0.33375 -1.31968e-06 0.00119098
-0.33 -1.33553e-06 0.00119168 -0.32625 -1.35142e-06 0.00119237 -0.3225 -1.36739e-06 0.00119299 -0.31875
-1.38345e-06 0.00119351 -0.315 -1.39985e-06 0.00119392 -0.31125 -1.41645e-06 0.00119434 -0.3075 -1.43309e-06
0.00119475 -0.30375 -1.44979e-06 0.00119505 -0.3 -1.46654e-06 0.00119519 -0.29625 -1.47953e-06 0.00119517
-0.2925 -1.49679e-06 0.00119492 -0.28875 -1.51404e-06 0.00119444 -0.285 -1.53128e-06 0.00119378 -0.28125
-1.54857e-06 0.00119313 -0.2775 -1.56133e-06 0.00119247 -0.27375 -1.5791e-06 0.00119148 -0.27 -1.59674e-06
0.00119016 -0.26625 -1.61429e-06 0.00118859 -0.2625 -1.63189e-06 0.00118702 -0.25875 -1.64407e-06 0.00118546
-0.255 -1.6621e-06 0.00118342 -0.25125 -1.67988e-06 0.00118089 -0.2475 -1.69747e-06 0.00117803 -0.24375
-1.7151e-06 0.00117518 -0.24 -1.73335e-06 0.00117234 -0.23625 -1.75134e-06 0.00116886 -0.2325 -1.76885e-06
0.00116475 -0.22875 -1.78604e-06 0.00116023 -0.225 -1.80326e-06 0.00115573 -0.22125 -1.81281e-06 0.00115125
-0.2175 -1.83002e-06 0.0011459 -0.21375 -1.84642e-06 0.0011397 -0.21 -1.86232e-06 0.00113299 -0.20625
-1.87824e-06 0.00112633 -0.2025 -1.8853e-06 0.00111971 -0.19875 -1.90137e-06 0.00111188 -0.195 -1.91624e-06
0.00110286 -0.19125 -1.93051e-06 0.00109325 -0.1875 -1.94479e-06 0.00108374 -0.18375 -1.95974e-06 0.00107432
-0.18 -1.97299e-06 0.00106337 -0.17625 -1.9844e-06 0.00105092 -0.1725 -1.99508e-06 0.00103796 -0.16875
-2.00582e-06 0.00102517 -0.165 -2.01754e-06 0.00101257 -0.16125 -2.02673e-06 0.00099818 -0.1575 -2.03333e-06
0.00098205 -0.15375 -2.03935e-06 0.000965682 -0.15 -2.04551e-06 0.000949617 -0.14625 -2.0528e-06 0.000933846
-0.1425 -2.05567e-06 0.000916078 -0.13875 -2.05425e-06 0.000896375 -0.135 -2.05275e-06 0.000876935 -0.13125
-2.05156e-06 0.000857954 -0.1275 -2.03737e-06 0.000839415 -0.12375 -2.03283e-06 0.000818812 -0.12 -2.02463e-06
0.000796552 -0.11625 -2.01699e-06 0.000774934 -0.1125 -2.00989e-06 0.000753939 -0.10875 -1.98986e-06 0.000733542
-0.105 -1.97656e-06 0.000711121 -0.10125 -1.9591e-06 0.00068774 -0.0975 -1.94256e-06 0.000665153 -0.0937499
-1.9269e-06 0.000643331 -0.0899999 -1.91271e-06 0.000622242 -0.0862499 -1.89374e-06 0.000599619 -0.0824999 -1.87374e-06
0.000576934 -0.0787499 -1.85484e-06 0.000555112 -0.0749999 -1.83702e-06 0.000534119 -0.0712499 -1.82061e-06 0.000513919
-0.0674999 -1.80344e-06 0.000493635 -0.0637499 -1.78709e-06 0.000473999 -0.0599999 -1.77175e-06 0.000455131 -0.0562499
-1.75736e-06 0.000437003 -0.0524999 -1.73241e-06 0.00041958 -0.0487498 -1.71247e-06 0.000404501 -0.0449998 -1.69347e-06
0.000389947 -0.0412498 -1.67541e-06 0.0003759 -0.0374998 -1.65824e-06 0.000362344 -0.0337498 -1.64198e-06 0.000349259
-0.0299998 -1.61797e-06 0.000340633 -0.0262498 -1.59464e-06 0.000332211 -0.0224998 -1.57195e-06 0.000323989 -0.0187499
-1.5499e-06 0.000315964 -0.0149999 -1.52831e-06 0.000308129 -0.0112499 -1.50423e-06 0.000304706 -0.0074999 -1.48038e-06
0.000301319 -0.00374991 -1.45675e-06 0.000297968 6.11907e-08 -1.43332e-06 0.000294653 0.00375005 -1.40249e-06 0.000291374
0.00750005 -1.37836e-06 0.000288132 0.01125 -1.35445e-06 0.000284925 0.015 -1.33076e-06 0.000281752 0.01875
-1.30729e-06 0.000278614 0.0225 -1.27795e-06 0.000277579 0.02625 -1.25386e-06 0.000276548 0.03 -1.22977e-06
0.000275521 0.03375 -1.20569e-06 0.000274498 0.0375 -1.18161e-06 0.000273478 0.04125 -1.14856e-06 0.000272991
0.045 -1.11949e-06 0.000272505 0.04875 -1.09038e-06 0.00027202 0.0525 -1.06122e-06 0.000271536 0.05625
-1.03202e-06 0.000271053 0.06 -9.96822e-07 0.000270855 0.06375 -9.6107e-07 0.000270658 0.0675 -9.2524e-07
0.000270461 0.07125 -8.89334e-07 0.000270264 0.075 -8.5335e-07 0.000270067 0.07875 -8.08202e-07 0.000270021
0.0825 -7.65128e-07 0.000269974 0.08625 -7.21951e-07 0.000269928 0.09 -6.78671e-07 0.000269881 0.09375
-6.35288e-07 0.000269835 0.0975 -5.83729e-07 0.00026984 0.10125 -5.33569e-07 0.000269846 0.105 -4.83288e-07
0.000269852 0.10875 -4.32885e-07 0.000269857 0.1125 -3.8236e-07 0.000269863 0.11625 -3.30055e-07 0.000269882
[...]
POINT_DATA 19494
FIELD attributes 3
age 1 19494 float
0 7.30159e-05 0.000146036 0.000219059 0.000292086 0.000365117 0.000553999 0.000742881 0.000931763 0.00112066 0.00130959
0.00149856 0.00168752 0.00187649 0.00206547 0.00225448 0.00244353 0.00263259 0.00282164 0.00301071 0.00319982
0.00338896 0.0035781 0.00376725 0.00395641 0.00414562 0.00433486 0.00452411 0.00471336 0.00490262 0.00509193
0.00516037 0.00522881 0.00529726 0.00536571 0.00542895 0.00555096 0.00567299 0.00579503 0.00591706 0.0060391
0.00622857 0.00641808 0.00660765 0.00679724 0.00698683 0.00717642 0.00736606 0.00755576 0.00774548 0.0079352
0.00812493 0.00831471 0.00850454 0.00869441 0.00888427 0.00907414 0.00926407 0.00945405 0.00964407 0.00983409
0.0100241 0.0102142 0.0104043 0.0105945 0.0107847 0.0109749 0.0111652 0.0113555 0.0115458 0.0117362
0.0119266 0.012117 0.0123075 0.0124981 0.0126886 0.0128792 0.0130698 0.0132606 0.0134513 0.0136421
0.0138329 0.0140237 0.0142147 0.0144056 0.0145966 0.0147876 0.0149787 0.0151699 0.0153611 0.0155524
0.0157436 0.015935 0.0161264 0.0163179 0.0165094 0.0167009 0.0168926 0.0170843 0.0172761 0.0174679
0.0176597 0.0178516 0.0180437 0.0182358 0.0184279 0.01862 0.0188123 0.0190047 0.0191971 0.0193896
0.0195821 0.0197747 0.0199674 0.0201603 0.0203531 0.020546 0.0207388 0.0209317 0.0211246 0.0213177
0.021511 0.0217043 0.0218975 0.0220909 0.0222845 0.0224782 0.0226719 0.0228656 0.0230595 0.0232535
0.0234478 0.023642 0.0238362 0.0240306 0.0242252 0.0244199 0.0246147 0.0248095 0.0250045 0.0251996
0.025395 0.0255904 0.0257858 0.0259814 0.0261772 0.0263733 0.0265693 0.0267654 0.0269617 0.0271582
0.027355 0.0275519 0.0277487 0.0279457 0.0281431 0.0283407 0.0285383 0.028736 0.0289339 0.0291321
0.0293306 0.0295292 0.0297278 0.0299266 0.0301258 0.0303253 0.0305249 0.0307245 0.0309243 0.0311246
0.0313253 0.0315259 0.0317266 0.0319276 0.0321291 0.0323309 0.0325328 0.0327348 0.032937 0.0331397
0.0333429 0.0335462 0.0337494 0.033953 0.0341571 0.0343618 0.0345665 0.0347711 0.0349762 0.0351818
0.035388 0.0355942 0.0358004 0.036007 0.0362142 0.036422 0.0366304 0.0368394 0.0370488 0.0372582
0.0374676 0.0376776 0.0378882 0.0380992 0.0383101 0.038521 0.0387325 0.0389445 0.0391569 0.0393692
0.0395815 0.0397942 0.0400073 0.0402207 0.040434 0.0406472 0.0408607 0.0410745 0.0412883 0.041502
0.0417155 0.0419291 0.0421426 0.042356 0.0425692 0.0427821 0.0429946 0.0432067 0.0434183 0.0436297
0.0438407 0.0440508 0.04426 0.0444686 0.0446769 0.0448847 0.0450911 0.0452959 0.0455003 0.0457042
0.0459078 0.0461092 0.0463087 0.0465078 0.0467066 0.0469051 0.0471007 0.0472946 0.0474882 0.0476816
0.0478748 0.0480646 0.0482531 0.0484416 0.04863 0.0488184 0.0490031 0.0491873 0.0493717 0.0495561
0.0497407 0.049922 0.0501034 0.0502851 0.0504669 0.050649 0.0508289 0.0510091 0.0511894 0.0513698
0.0515505 0.0517304 0.0519105 0.0520906 0.0522707 0.052451 0.0526313 0.0528117 0.0529922 0.0531728
0.0533535 0.0535341 0.0537149 0.0538956 0.0540764 0.0542574 0.0544385 0.0546196 0.0548007 0.0549818
0.0551632 0.0553447 0.0555261 0.0557076 0.055889 0.0560708 0.0562525 0.0564343 0.0566161 0.0567978
0.0569799 0.0571619 0.057344 0.057526 0.0577081 0.0578904 0.0580728 0.0582551 0.0584374 0.0586198
0.0587088 0.0587978 0.0588867 0.0589757 0.0590634 0.0591573 0.0592512 0.0593451 0.059439 0.0595329
0.0597159 0.0598988 0.0600817 0.0602646 0.0604476 0.0606308 0.060814 0.0609973 0.0611805 0.0613637
0.0615472 0.0617308 0.0619143 0.0620978 0.0622814 0.0624652 0.062649 0.0628328 0.0630167 0.0632005
0.0633846 0.0635687 0.0637528 0.0639369 0.064121 0.0643054 0.0644897 0.0646741 0.0648584 0.0650428
0.0651525 0.0652623 0.065372 0.0654818 0.0655928 0.0656674 0.065742 0.0658166 0.0658912 0.0659658
0.0661506 0.0663354 0.0665202 0.066705 0.0668898 0.0670748 0.06726 0.0674452 0.0676304 0.0678155
0.0680007 0.068186 0.0683714 0.0685567 0.068742 0.0689274 0.0691128 0.0692983 0.0694837 0.0696692
0.0698547 0.0700402 0.0702258 0.0704114 0.070597 0.0707826 0.0709682 0.0711539 0.0713396 0.0715253
0.0717109 0.0718967 0.0720825 0.0722682 0.072454 0.0726397 0.0728256 0.0730114 0.0731972 0.073383
0.0735688 0.0737547 0.0739405 0.0741264 0.0743123 0.0744981 0.074684 0.0748699 0.0750558 0.0752416
0.0754275 0.0756134 0.0757993 0.0759852 0.076171 0.0763569 0.0765428 0.0767286 0.0769145 0.0771004
0.0772862 0.0774721 0.0776579 0.0778437 0.0780295 0.0782154 0.0784011 0.0785869 0.0787727 0.0789585
0.0791443 0.07933 0.0795158 0.0797015 0.0798872 0.080073 0.0802587 0.0804445 0.0806302 0.0808159
0.0810017 0.0811874 0.0813731 0.0815589 0.0817446 0.0819303 0.0821161 0.0823018 0.0824876 0.0826733
0.0828591 0.0830449 0.0832306 0.0834164 0.0836022 0.083788 0.0839738 0.0841597 0.0843455 0.0845313
0.0847172 0.0849031 0.085089 0.0852749 0.0854608 0.0856468 0.0858328 0.0860187 0.0862047 0.0863907
0.0865767 0.0867627 0.0869488 0.0871348 0.0873208 0.0875069 0.087693 0.0878791 0.0880652 0.0882513
0.0884375 0.0886236 0.0888098 0.0889959 0.0891821 0.0893683 0.0895545 0.0897408 0.089927 0.0901132
0.0902995 0.0904857 0.090672 0.0908583 0.0910445 0.0912309 0.0914172 0.0916035 0.0917898 0.0919761
0.0921625 0.0923488 0.0925352 0.0927215 0.0929079 0.0930943 0.0932807 0.0934671 0.0936535 0.0938399
0.0940263 0.0942127 0.0943992 0.0945856 0.094772 0.0949585 0.0951449 0.0953314 0.0955179 0.0957043
0.0958908 0.0960773 0.0962638 0.0964503 0.0966368 0.0968234 0.09701 0.0971966 0.0973831 0.0975697
0.0977563 0.097943 0.0981297 0.0983163 0.098503 0.0986896 0.0988764 0.0990631 0.0992498 0.0994366
0.0996233 0.0998101 0.0999968 0.100184 0.10037 0.100557 0.100744 0.100931 0.101118 0.101305
0.101491 0.101678 0.101865 0.102052 0.102239 0.102426 0.102613 0.1028 0.102988 0.103175
0.103362 0.103549 0.103737 0.103924 0.104112 0.104299 0.104487 0.104675 0.104863 0.105051
0.105239 0.105427 0.105615 0.105804 0.105992 0.10618 0.106369 0.106558 0.106747 0.106935
0.107124 0.107314 0.107503 0.107692 0.107881 0.108071 0.10826 0.10845 0.10864 0.10883
0.109019 0.109209 0.109399 0.109589 0.109779 0.109969 0.110159 0.11035 0.11054 0.11073
0.11092 0.111111 0.111301 0.111491 0.111682 0.111872 0.112062 0.112253 0.112443 0.112633
0.112824 0.113014 0.113204 0.113395 0.113585 0.113776 0.113966 0.114157 0.114347 0.114537
0.114728 0.114918 0.115109 0.115299 0.11549 0.11568 0.11587 0.116061 0.116251 0.116442
0.116632 0.116822 0.117013 0.117203 0.117394 0.117555 0.117717 0.117879 0.11804 0.118205
0.118233 0.118261 0.118289 0.118317 0.118345 0.118536 0.118726 0.118916 0.119107 0.119297
0.119487 0.119677 0.119868 0.120058 0.120248 0.120439 0.120629 0.120819 0.121009 0.1212
0.12139 0.12158 0.12177 0.12196 0.122151 0.122341 0.122531 0.122721 0.122911 0.123101
0.123292 0.123482 0.123672 0.123862 0.124052 0.124242 0.124432 0.124622 0.124812 0.125002
0.125192 0.125382 0.125572 0.125762 0.125952 0.126142 0.126332 0.126522 0.126712 0.126902
0.127092 0.127282 0.127472 0.127662 0.127852 0.128042 0.128231 0.128421 0.128611 0.128801
0.128991 0.129181 0.12937 0.12956 0.12975 0.12994 0.130129 0.130319 0.130509 0.130698
0.130888 0.131078 0.131267 0.131457 0.131647 0.131836 0.132026 0.132215 0.132405 0.132594
0.132784 0.132973 0.133163 0.133353 0.133542 0.133731 0.133921 0.13411 0.1343 0.134489
0.134678 0.134868 0.135057 0.135247 0.135436 0.135625 0.135815 0.136004 0.136193 0.136383
0.136572 0.136761 0.13695 0.137139 0.137329 0.137518 0.137707 0.137896 0.138085 0.138274
0.138463 0.138653 0.138842 0.139031 0.13922 0.139409 0.139598 0.139787 0.139976 0.140165
0.140354 0.140543 0.140732 0.140921 0.14111 0.141299 0.141487 0.141676 0.141865 0.142054
0.142243 0.142432 0.142621 0.142809 0.142998 0.143187 0.143376 0.143564 0.143753 0.143942
0.14413 0.144319 0.144508 0.144696 0.144885 0.145074 0.145262 0.145451 0.14564 0.145828
0.146017 0.146205 0.146394 0.146582 0.146771 0.146959 0.147148 0.147336 0.147525 0.147713
0.147902 0.14809 0.148278 0.148467 0.148655 0.148844 0.149032 0.14922 0.149409 0.149597
0.149785 0.149974 0.150162 0.15035 0.150539 0.150727 0.150915 0.151103 0.151292 0.15148
0.151856 0.152232 0.152608 0.152984 0.15336 0.154111 0.154862 0.155612 0.156363 0.157114
0.158614 0.160115 0.161615 0.163115 0.164616 0.166116 0.167616 0.169116 0.170616 0.172117
0.175081 0.178045 0.181009 0.183974 0.187117 0.193117 0.199117 0.205117 0.211117 0.217118
0.223118 0.229118 0.235118 0.241118 0.247118 0.253118 0.259118 0.265118 0.271118 0.277118
0.283118 0.289118 0.295118 0.301118 0.307118 0.313118 0.319118 0.325118 0.331118 0.337118
0.343118 0.349118 0.355118 0.361118 0.367118 0.373118 0.379118 0.385118 0.391118 0.397118
0.403118 0.403154 0 7.36901e-05 0.000147384 0.000221082 0.000294784 0.00036849 0.000559121 0.000749785
0.000940484 0.00113122 0.00132198 0.00151278 0.00170362 0.00189449 0.0020854 0.00227634 0.00232461 0.00237288
0.00242115 0.00246942 0.00251638 0.00265939 0.00280242 0.00294547 0.00308855 0.00323164 0.00342281 0.00361402
0.00380527 0.00399655 0.00418788 0.00437925 0.00457067 0.00476212 0.00495362 0.00514517 0.00533676 0.00552839
0.00572007 0.0059118 0.00610357 0.00629539 0.00648726 0.00667919 0.00687116 0.00706318 0.00725525 0.00744737
0.00763955 0.00783178 0.00802407 0.00821641 0.00840881 0.00860127 0.00879378 0.00898635 0.00917898 0.00937167
0.00956443 0.00975724 0.00995012 0.0101431 0.0103361 0.0105291 0.0107223 0.0109155 0.0111088 0.0113021
0.0114955 0.011689 0.0118826 0.0120763 0.01227 0.0124638 0.0126576 0.0128516 0.0130456 0.0132397
0.013434 0.0136282 0.0138226 0.0140171 0.0142116 0.0144063 0.014601 0.0147958 0.0149907 0.0151858
0.0153809 0.0155761 0.0157714 0.0159668 0.0161623 0.016358 0.0165537 0.0167496 0.0169455 0.0171416
0.0173378 0.0175341 0.0177306 0.0179271 0.0181238 0.0183206 0.0185176 0.0187146 0.0189118 0.0191092
0.0193067 0.0195043 0.019702 0.0198999 0.020098 0.0202962 0.0204946 0.0206931 0.0208918 0.0210906
0.0212897 0.0214888 0.0216882 0.0218877 0.0220874 0.0222874 0.0224874 0.0226877 0.0228882 0.0230888
0.0232897 0.0234908 0.0236921 0.0238936 0.0240953 0.0242972 0.0244994 0.0247018 0.0249044 0.0251073
0.0253104 0.0255138 0.0257174 0.0259213 0.0261255 0.0263299 0.0265346 0.0267396 0.0269449 0.0271505
0.0273564 0.0275626 0.0277691 0.0279759 0.0281831 0.0283906 0.0285984 0.0288066 0.0290152 0.0292241
0.0294334 0.0296431 0.0298532 0.0300637 0.0302746 0.030486 0.0306977 0.0309099 0.0311226 0.0313357
0.0315493 0.0317634 0.0319779 0.032193 0.0324086 0.0326247 0.0328414 0.0330586 0.0332764 0.0334948
0.0337138 0.0339334 0.0341536 0.0343745 0.034596 0.0348182 0.0350411 0.0352648 0.0354891 0.0357141
0.03594 0.0361666 0.036394 0.0366222 0.0368513 0.0370812 0.0373121 0.0375438 0.0377764 0.0380099
0.0382444 0.0384799 0.0387164 0.038954 0.0391926 0.0394323 0.0396731 0.0399151 0.0401581 0.0404023
0.0406476 0.0408941 0.0411419 0.041391 0.0416413 0.041893 0.0421459 0.0424003 0.0426557 0.0429124
0.0431702 0.0434294 0.0436902 0.0439522 0.0442154 0.0444798 0.0447452 0.0450125 0.0452804 0.0455487
0.0458177 0.0460871 0.046359 0.0464867 0.0466144 0.046742 0.0468695 0.0469496 0.0471031 0.0472564
0.0474096 0.0475625 0.0477165 0.0479874 0.0482564 0.0485237 0.048789 0.0490574 0.0492036 0.0493487
0.0494926 0.0496354 0.0497455 0.0498658 0.0499854 0.0501042 0.0502222 0.0503404 0.0505879 0.0508301
0.0510675 0.0513001 0.0515292 0.0515447 0.0515601 0.0515755 0.0515909 0.0516063 0.051813 0.052015
0.0522126 0.052406 0.0525934 0.0527048 0.0528144 0.0529224 0.0530291 0.0531629 0.0532373 0.0533111
0.0533841 0.0534566 0.0535279 0.0537023 0.053873 0.0540403 0.0542044 0.054362 0.0545004 0.0546373
0.0547727 0.0549066 0.0551282 0.0551428 0.0551574 0.0551721 0.0551867 0.0552033 0.0553348 0.0554658
0.0555963 0.0557262 0.0558548 0.0559977 0.0561408 0.056284 0.0564273 0.0565706 0.0567139 0.0568576
0.0570015 0.0571459 0.0572906 0.0574356 0.057581 0.0577268 0.057873 0.0580195 0.0581663 0.0583135
0.0584609 0.0586087 0.0587568 0.0589053 0.059054 0.0592031 0.0593524 0.0595021 0.0596521 0.0598023
0.0599529 0.0601038 0.0602549 0.0604064 0.0605582 0.0607102 0.0608626 0.0610153 0.0611683 0.0613216
0.0614753 0.0616293 0.0617836 0.0619382 0.0620932 0.0622485 0.0624041 0.0625601 0.0627165 0.0628731
0.0630302 0.0631875 0.0633453 0.0635033 0.0636617 0.0638205 0.0639796 0.0641391 0.0642989 0.064459
0.0646195 0.0647803 0.0649414 0.0651029 0.0652647 0.0654269 0.0655893 0.0657521 0.0659152 0.0660786
0.0662423 0.0664062 0.0665705 0.0667351 0.0669 0.0670652 0.0672306 0.0673963 0.0675623 0.0677285
0.067895 0.0680618 0.0682288 0.068396 0.0685636 0.0687313 0.0688993 0.0690675 0.0692359 0.0694045
0.0695734 0.0697424 0.0699117 0.0700811 0.0702508 0.0704206 0.0705907 0.0707609 0.0709313 0.0711018
0.0712726 0.0714434 0.0716145 0.0717857 0.0719571 0.0721286 0.0723003 0.0724721 0.0726441 0.0728161
0.0729883 0.0731606 0.073333 0.0735056 0.0736782 0.073851 0.0740238 0.0741968 0.0743698 0.0745429
0.0747161 0.0748894 0.0750627 0.0752361 0.0754095 0.075583 0.0757566 0.0759301 0.0761038 0.0762774
0.076451 0.0766247 0.0767983 0.076972 0.0771457 0.0773193 0.077493 0.0776666 0.0778402 0.0780137
0.0781872 0.0783607 0.0785341 0.0787076 0.0788809 0.0790543 0.0792275 0.0794008 0.0795739 0.0797471
0.0799201 0.0800931 0.0802661 0.080439 0.080612 0.0807849 0.0809578 0.0811306 0.0813035 0.0814763
0.0816492 0.0818221 0.081995 0.0821679 0.0823409 0.082514 0.0826871 0.0828602 0.0830334 0.0832067
0.08338 0.0835535 0.083727 0.0839006 0.0840744 0.0842482 0.0844221 0.0845962 0.0847703 0.0849445
0.0851188 0.0852933 0.0854678 0.0856425 0.0858173 0.0859922 0.0861673 0.0863424 0.0865176 0.086693
0.0868684 0.087044 0.0872196 0.0873954 0.0875713 0.0877474 0.0879235 0.0880997 0.088276 0.0884525
0.088629 0.0888056 0.0889823 0.0891591 0.0893361 0.0895131 0.0896902 0.0898674 0.0900448 0.0902221
0.0903996 0.0905771 0.0907548 0.0909325 0.0911104 0.0912883 0.0914663 0.0916443 0.0918225 0.0920007
0.092179 0.0923573 0.0925358 0.0927143 0.0928929 0.0930716 0.0932503 0.0934291 0.093608 0.093787
0.093966 0.094145 0.0943242 0.0945034 0.0946827 0.0948621 0.0950416 0.0952211 0.0954007 0.0955804
0.0957601 0.0959399 0.0961198 0.0962998 0.0964799 0.0966601 0.0968404 0.0970208 0.0972013 0.097382
0.0975628 0.0977437 0.0979248 0.0981065 0.0982884 0.0984705 0.0986527 0.098835 0.0990166 0.0991983
0.0993801 0.0995619 0.0997439 0.0999261 0.100108 0.100291 0.100473 0.100656 0.100839 0.101021
0.101205 0.101388 0.101571 0.101755 0.101939 0.102124 0.102309 0.102494 0.10268 0.102867
0.103054 0.103241 0.103429 0.103619 0.103809 0.104 0.104192 0.104384 0.104578 0.104772
0.104968 0.105164 0.105362 0.105561 0.105762 0.105964 0.106167 0.106372 0.106578 0.106785
0.106993 0.107203 0.107415 0.107628 0.107843 0.108061 0.108279 0.1085 0.108721 0.108945
0.10917 0.109396 0.109625 0.109855 0.110087 0.110321 0.110557 0.110794 0.111033 0.111274
0.111516 0.111759 0.112005 0.112252 0.1125 0.11275 0.113002 0.113255 0.113509 0.113765
0.114022 0.11428 0.114539 0.114713 0.114887 0.115062 0.115237 0.115408 0.115497 0.115586
0.115676 0.115765 0.115855 0.116121 0.116388 0.116656 0.116925 0.117194 0.117465 0.117736
0.118007 0.118279 0.118552 0.118826 0.1191 0.119375 0.11965 0.119926 0.120201 0.120477
0.120754 0.12103 0.121307 0.121585 0.121862 0.12214 0.122417 0.122695 0.12288 0.123065
0.123249 0.123434 0.12361 0.123705 0.1238 0.123895 0.12399 0.124085 0.124363 0.124641
0.124919 0.125196 0.125474 0.125751 0.126028 0.126304 0.126581 0.126857 0.127133 0.127408
0.127684 0.127958 0.128233 0.128507 0.128781 0.129055 0.129329 0.129602 0.129874 0.130147
0.130419 0.13069 0.130961 0.131232 0.131503 0.131774 0.132044 0.132314 0.132583 0.132852
0.13312 0.133388 0.133657 0.133924 0.134191 0.134459 0.134726 0.134993 0.135259 0.135525
0.13579 0.136056 0.136321 0.136586 0.13685 0.137115 0.13738 0.137644 0.137907 0.138171
0.138434 0.138698 0.138961 0.139223 0.139485 0.139747 0.140009 0.14027 0.140313 0.140356
0.140399 0.140441 0.140485 0.140703 0.140921 0.141139 0.141356 0.141573 0.141833 0.142093
0.142352 0.142611 0.14287 0.143128 0.143386 0.143645 0.143902 0.14416 0.144416 0.144673
0.14493 0.145186 0.145442 0.145697 0.145953 0.146208 0.146463 0.146718 0.146971 0.147226
0.147479 0.147733 0.147986 0.148238 0.148491 0.148744 0.148996 0.149249 0.149499 0.149751
0.150002 0.150253 0.150503 0.150752 0.151003 0.151253 0.151503 0.151753 0.152 0.152249
0.152498 0.152746 0.152994 0.153241 0.153488 0.153736 0.153984 0.154231 0.154476 0.154722
0.154968 0.155214 0.15546 0.155704 0.155949 0.156194 0.156439 0.156684 0.156926 0.15717
0.157414 0.157658 0.157901 0.158142 0.158385 0.158628 0.15887 0.159112 0.159352 0.159594
0.159835 0.160076 0.160317 0.160556 0.160796 0.161035 0.161275 0.161514 0.161752 0.16199
0.162228 0.162466 0.162704 0.16294 0.163177 0.163413 0.16365 0.163886 0.164121 0.164356
0.164591 0.164825 0.16506 0.165294 0.165527 0.16576 0.165993 0.166225 0.166252 0.166279
0.166306 0.166332 0.166359 0.166795 0.16723 0.167656 0.168071 0.168474 0.169281 0.170086
0.170887 0.171684 0.172476 0.174005 0.175533 0.17706 0.178586 0.180109 0.181618 0.18313
0.184641 0.186152 0.187661 0.190625 0.193592 0.196557 0.199522 0.202707 0.208712 0.214717
0.220722 0.226727 0.232732 0.238733 0.244736 0.250739 0.256742 0.262744 0.268745 0.274747
0.28075 0.286752 0.292754 0.298755 0.304757 0.310759 0.316761 0.322762 0.328763 0.334764
0.340766 0.346768 0.352769 0.35877 0.364771 0.370772 0.376774 0.382775 0.388775 0.394776
0.400777 0.406779 0.41278 0.41878 0.421389 0 7.3666e-05 0.000147337 0.000221012 0.000294692
0.000368377 0.000558953 0.000749561 0.000940203 0.00113088 0.00132159 0.00151233 0.0017031 0.00189391 0.00208476
0.00227564 0.00232464 0.00237365 0.00242266 0.00247167 0.00251913 0.00266138 0.00280366 0.00294596 0.00308827
0.00323061 0.00342171 0.00361285 0.00380402 0.00399524 0.0041865 0.00437779 0.00456913 0.00476052 0.00495194
0.00514341 0.00533491 0.00552647 0.00571807 0.00590971 0.0061014 0.00629314 0.00648492 0.00667676 0.00686864
0.00706057 0.00725255 0.00744458 0.00763666 0.0078288 0.00802099 0.00821323 0.00840552 0.00859788 0.00879029
0.00898275 0.00917527 0.00936786 0.0095605 0.0097532 0.00994596 0.0101388 0.0103317 0.0105246 0.0107177
0.0109107 0.0111039 0.0112971 0.0114904 0.0116838 0.0118772 0.0120707 0.0122643 0.0124579 0.0126517
0.0128455 0.0130393 0.0132333 0.0134274 0.0136215 0.0138157 0.01401 0.0142044 0.0143988 0.0145934
0.0147881 0.0149828 0.0151776 0.0153726 0.0155676 0.0157627 0.0159579 0.0161533 0.0163487 0.0165442
0.0167399 0.0169356 0.0171315 0.0173275 0.0175236 0.0177198 0.0179161 0.0181126 0.0183091 0.0185058
0.0187026 0.0188996 0.0190967 0.0192939 0.0194913 0.0196888 0.0198864 0.0200842 0.0202821 0.0204802
0.0206784 0.0208768 0.0210754 0.0212741 0.0214729 0.021672 0.0218712 0.0220706 0.0222701 0.0224699
0.0226698 0.02287 0.0230703 0.0232708 0.0234715 0.0236724 0.0238735 0.0240749 0.0242764 0.0244782
0.0246802 0.0248825 0.0250849 0.0252876 0.0254906 0.0256938 0.0258973 0.026101 0.026305 0.0265093
0.0267139 0.0269187 0.0271239 0.0273293 0.0275351 0.0277412 0.0279475 0.0281543 0.0283613 0.0285687
0.0287765 0.0289846 0.0291931 0.029402 0.0296113 0.029821 0.0298557 0.0298904 0.0299251 0.0299599
0.0299939 0.0301697 0.0303458 0.0305223 0.030699 0.030876 0.0310883 0.0313011 0.0315144 0.0317282
0.0319425 0.0321573 0.0323727 0.0325887 0.0328052 0.0330224 0.0332401 0.0334585 0.0336776 0.0338973
0.0341177 0.0343388 0.0345607 0.0347834 0.0350068 0.0352311 0.0354561 0.0356821 0.0359089 0.0361367
0.0363654 0.0365951 0.0368259 0.0370578 0.0372908 0.0375249 0.0377601 0.0379966 0.0382344 0.0384735
0.038714 0.0389559 0.0391994 0.0394446 0.0396914 0.0399399 0.0401899 0.0404419 0.0406959 0.0409519
0.04121 0.0414701 0.0417328 0.041998 0.0422658 0.0425362 0.0428098 0.0430865 0.0433664 0.0436495
0.0439364 0.0442261 0.0445199 0.0448179 0.0451201 0.0454279 0.0457378 0.0460523 0.0463714 0.046695
0.047029 0.0471877 0.0473478 0.047509 0.0476712 0.0477487 0.0479533 0.0481593 0.0483665 0.0485749
0.0487916 0.049093 0.0493966 0.0497018 0.0500061 0.0500965 0.0502152 0.0503337 0.0504517 0.0505694
0.0506917 0.0508891 0.0510844 0.0512775 0.0514683 0.0515923 0.0517962 0.0519965 0.0521933 0.0523866