# vtk DataFile Version 2.0
tracks
ASCII
DATASET POLYDATA
POINTS 19438 float
-1.001 1e-07 0.0011 -0.99955 9.57118e-08 0.00110002 -0.9981 9.1416e-08 0.00110004 -0.99665 8.71127e-08
0.00110007 -0.9952 8.28018e-08 0.0011001 -0.99375 7.84834e-08 0.00110014 -0.99 6.72802e-08 0.00110024
-0.98625 5.60883e-08 0.00110034 -0.9825 4.48934e-08 0.00110043 -0.97875 3.36504e-08 0.00110054 -0.975
2.23162e-08 0.00110067 -0.973536 1.7853e-08 0.00110073 -0.972071 1.33908e-08 0.00110079 -0.970607 8.92802e-09
0.00110085 -0.969143 4.4647e-09 0.00110091 -0.967678 1.64166e-17 0.00110097 -0.965392 -6.96835e-09 0.00110106
-0.963107 -1.3942e-08 0.00110115 -0.960821 -2.09488e-08 0.00110125 -0.958536 -2.79888e-08 0.00110135 -0.95625
-3.50621e-08 0.00110145 -0.9525 -4.67152e-08 0.00110162 -0.94875 -5.83791e-08 0.00110179 -0.945 -7.00471e-08
0.00110196 -0.94125 -8.17604e-08 0.00110213 -0.9375 -9.3558e-08 0.0011023 -0.93375 -1.05432e-07 0.00110248
-0.93 -1.17318e-07 0.00110266 -0.92625 -1.29209e-07 0.00110284 -0.9225 -1.41147e-07 0.00110302 -0.91875
-1.53172e-07 0.0011032 -0.915 -1.6527e-07 0.00110338 -0.91125 -1.77387e-07 0.00110357 -0.9075 -1.89508e-07
0.00110375 -0.90375 -2.01678e-07 0.00110394 -0.9 -2.13935e-07 0.00110413 -0.89625 -2.26264e-07 0.00110432
-0.8925 -2.38698e-07 0.00110452 -0.88875 -2.51217e-07 0.00110472 -0.885 -2.63784e-07 0.00110493 -0.88125
-2.76355e-07 0.00110513 -0.8775 -2.88874e-07 0.00110534 -0.87375 -3.0154e-07 0.00110554 -0.87 -3.14294e-07
0.00110576 -0.86625 -3.27097e-07 0.00110597 -0.8625 -3.39904e-07 0.00110619 -0.85875 -3.52645e-07 0.00110641
-0.855 -3.65559e-07 0.00110663 -0.85125 -3.78572e-07 0.00110686 -0.8475 -3.9164e-07 0.00110708 -0.84375
-4.04713e-07 0.00110731 -0.84 -4.17763e-07 0.00110754 -0.83625 -4.30956e-07 0.00110778 -0.8325 -4.44259e-07
0.00110802 -0.82875 -4.57624e-07 0.00110827 -0.825 -4.70994e-07 0.00110851 -0.82125 -4.84262e-07 0.00110876
-0.8175 -4.97768e-07 0.00110901 -0.81375 -5.11399e-07 0.00110926 -0.81 -5.25099e-07 0.00110953 -0.80625
-5.38806e-07 0.00110979 -0.8025 -5.5239e-07 0.00111005 -0.79875 -5.6625e-07 0.00111032 -0.795 -5.80249e-07
0.00111059 -0.79125 -5.94326e-07 0.00111087 -0.7875 -6.0841e-07 0.00111115 -0.78375 -6.22462e-07 0.00111143
-0.78 -6.36709e-07 0.00111172 -0.77625 -6.51106e-07 0.00111201 -0.7725 -6.65586e-07 0.00111231 -0.76875
-6.80074e-07 0.00111261 -0.765 -6.94527e-07 0.00111291 -0.76125 -7.09187e-07 0.00111322 -0.7575 -7.24001e-07
0.00111353 -0.75375 -7.38903e-07 0.00111385 -0.75 -7.53814e-07 0.00111417 -0.74625 -7.68523e-07 0.00111449
-0.7425 -7.83621e-07 0.00111482 -0.73875 -7.98887e-07 0.00111516 -0.735 -8.14248e-07 0.00111551 -0.73125
-8.29619e-07 0.00111585 -0.7275 -8.44754e-07 0.00111619 -0.72375 -8.60333e-07 0.00111655 -0.72 -8.76099e-07
0.00111691 -0.71625 -8.91971e-07 0.00111728 -0.7125 -9.07854e-07 0.00111765 -0.70875 -9.23462e-07 0.00111802
-0.705 -9.39574e-07 0.0011184 -0.70125 -9.55886e-07 0.00111879 -0.6975 -9.72316e-07 0.00111919 -0.69375
-9.88756e-07 0.00111958 -0.69 -1.00516e-06 0.00111998 -0.68625 -1.02185e-06 0.00112039 -0.6825 -1.03876e-06
0.00112081 -0.67875 -1.05579e-06 0.00112123 -0.675 -1.07284e-06 0.00112166 -0.67125 -1.08985e-06 0.00112209
-0.6675 -1.10716e-06 0.00112253 -0.66375 -1.12472e-06 0.00112298 -0.66 -1.14241e-06 0.00112344 -0.65625
-1.16011e-06 0.0011239 -0.6525 -1.17739e-06 0.00112436 -0.64875 -1.19539e-06 0.00112483 -0.645 -1.21364e-06
0.00112531 -0.64125 -1.23203e-06 0.00112581 -0.6375 -1.25044e-06 0.0011263 -0.63375 -1.26881e-06 0.00112679
-0.63 -1.28754e-06 0.0011273 -0.62625 -1.30652e-06 0.00112783 -0.6225 -1.32566e-06 0.00112836 -0.61875
-1.34481e-06 0.00112889 -0.615 -1.36394e-06 0.00112942 -0.61125 -1.38344e-06 0.00112996 -0.6075 -1.40321e-06
0.00113052 -0.60375 -1.42315e-06 0.00113109 -0.6 -1.44312e-06 0.00113167 -0.59625 -1.46306e-06 0.00113224
-0.5925 -1.48312e-06 0.00113281 -0.58875 -1.5032e-06 0.00113338 -0.585 -1.52346e-06 0.00113396 -0.58125
-1.54402e-06 0.00113456 -0.5775 -1.56408e-06 0.00113517 -0.57375 -1.58504e-06 0.00113578 -0.57 -1.60601e-06
0.0011364 -0.56625 -1.62718e-06 0.00113702 -0.5625 -1.64867e-06 0.00113767 -0.55875 -1.66953e-06 0.00113833
-0.555 -1.69144e-06 0.00113898 -0.55125 -1.71338e-06 0.00113964 -0.5475 -1.73552e-06 0.00114032 -0.54375
-1.75799e-06 0.001141 -0.54 -1.78075e-06 0.00114171 -0.53625 -1.80368e-06 0.00114242 -0.5325 -1.82664e-06
0.00114313 -0.52875 -1.84982e-06 0.00114385 -0.525 -1.87334e-06 0.00114459 -0.52125 -1.89595e-06 0.00114534
-0.5175 -1.91998e-06 0.0011461 -0.51375 -1.94404e-06 0.00114686 -0.51 -1.96834e-06 0.00114763 -0.50625
-1.99302e-06 0.00114842 -0.5025 -2.01659e-06 0.00114923 -0.49875 -2.04182e-06 0.00115004 -0.495 -2.0671e-06
0.00115084 -0.49125 -2.09264e-06 0.00115167 -0.4875 -2.11859e-06 0.00115251 -0.48375 -2.14495e-06 0.00115337
-0.48 -2.17153e-06 0.00115423 -0.47625 -2.19815e-06 0.00115509 -0.4725 -2.22505e-06 0.00115596 -0.46875
-2.25239e-06 0.00115685 -0.465 -2.28019e-06 0.00115776 -0.46125 -2.30822e-06 0.00115867 -0.4575 -2.3363e-06
0.00115958 -0.45375 -2.36469e-06 0.0011605 -0.45 -2.39352e-06 0.00116143 -0.44625 -2.42287e-06 0.00116238
-0.4425 -2.45247e-06 0.00116334 -0.43875 -2.48213e-06 0.00116429 -0.435 -2.51212e-06 0.00116525 -0.43125
-2.54259e-06 0.00116623 -0.4275 -2.57067e-06 0.00116722 -0.42375 -2.60201e-06 0.0011682 -0.42 -2.6334e-06
0.00116919 -0.41625 -2.66517e-06 0.00117019 -0.4125 -2.69745e-06 0.00117119 -0.40875 -2.72685e-06 0.00117219
-0.405 -2.76011e-06 0.0011732 -0.40125 -2.79344e-06 0.00117421 -0.3975 -2.82717e-06 0.00117522 -0.39375
-2.86144e-06 0.00117623 -0.39 -2.89646e-06 0.00117723 -0.38625 -2.93183e-06 0.00117824 -0.3825 -2.96729e-06
0.00117924 -0.37875 -3.00317e-06 0.00118024 -0.375 -3.03961e-06 0.00118122 -0.37125 -3.0769e-06 0.00118218
-0.3675 -3.11459e-06 0.00118315 -0.36375 -3.15238e-06 0.00118411 -0.36 -3.19061e-06 0.00118505 -0.35625
-3.22943e-06 0.00118596 -0.3525 -3.26307e-06 0.00118682 -0.34875 -3.3033e-06 0.00118769 -0.345 -3.34364e-06
0.00118856 -0.34125 -3.38445e-06 0.00118938 -0.3375 -3.42588e-06 0.00119014 -0.33375 -3.46841e-06 0.00119083
-0.33 -3.51145e-06 0.00119153 -0.32625 -3.5546e-06 0.00119222 -0.3225 -3.59824e-06 0.00119284 -0.31875
-3.64252e-06 0.00119335 -0.315 -3.68805e-06 0.00119377 -0.31125 -3.73414e-06 0.00119418 -0.3075 -3.78036e-06
0.00119459 -0.30375 -3.82707e-06 0.00119489 -0.3 -3.8744e-06 0.00119503 -0.29625 -3.91225e-06 0.00119501
-0.2925 -3.96206e-06 0.00119476 -0.28875 -4.01248e-06 0.00119427 -0.285 -4.06337e-06 0.00119361 -0.28125
-4.11439e-06 0.00119295 -0.2775 -4.15337e-06 0.0011923 -0.27375 -4.20659e-06 0.00119131 -0.27 -4.26041e-06
0.00118998 -0.26625 -4.31468e-06 0.00118841 -0.2625 -4.36907e-06 0.00118685 -0.25875 -4.40893e-06 0.00118528
-0.255 -4.4657e-06 0.00118324 -0.25125 -4.52297e-06 0.00118071 -0.2475 -4.58062e-06 0.00117785 -0.24375
-4.63836e-06 0.00117499 -0.24 -4.69778e-06 0.00117215 -0.23625 -4.75812e-06 0.00116867 -0.2325 -4.81878e-06
0.00116456 -0.22875 -4.87967e-06 0.00116004 -0.225 -4.94063e-06 0.00115553 -0.22125 -4.98054e-06 0.00115105
-0.2175 -5.04365e-06 0.0011457 -0.21375 -5.1067e-06 0.0011395 -0.21 -5.16969e-06 0.00113279 -0.20625
-5.23269e-06 0.00112612 -0.2025 -5.27094e-06 0.0011195 -0.19875 -5.33714e-06 0.00111168 -0.195 -5.40284e-06
0.00110265 -0.19125 -5.46824e-06 0.00109304 -0.1875 -5.53361e-06 0.00108352 -0.18375 -5.60069e-06 0.0010741
-0.18 -5.6671e-06 0.00106315 -0.17625 -5.73236e-06 0.0010507 -0.1725 -5.79706e-06 0.00103774 -0.16875
-5.86164e-06 0.00102496 -0.165 -5.92879e-06 0.00101235 -0.16125 -5.99427e-06 0.000997964 -0.1575 -6.05784e-06
0.000981835 -0.15375 -6.12078e-06 0.000965469 -0.15 -6.18356e-06 0.000949407 -0.14625 -6.24919e-06 0.000933633
-0.1425 -6.31102e-06 0.000915868 -0.13875 -6.36915e-06 0.000896168 -0.135 -6.42688e-06 0.000876733 -0.13125
-6.48453e-06 0.000857756 -0.1275 -6.49998e-06 0.000839216 -0.12375 -6.55588e-06 0.000818619 -0.12 -6.60846e-06
0.000796366 -0.11625 -6.66107e-06 0.000774755 -0.1125 -6.71373e-06 0.000753767 -0.10875 -6.72145e-06 0.000733368
-0.105 -6.76885e-06 0.000710956 -0.10125 -6.81209e-06 0.000687584 -0.0975 -6.85566e-06 0.000665005 -0.0937499
-6.89957e-06 0.000643192 -0.0899999 -6.94594e-06 0.000622099 -0.0862499 -6.98703e-06 0.000599487 -0.0824999 -7.02689e-06
0.000576812 -0.0787499 -7.06728e-06 0.000555 -0.0749999 -7.10819e-06 0.000534018 -0.0712499 -7.15105e-06 0.000513813
-0.0674999 -7.19203e-06 0.000493541 -0.0637499 -7.23343e-06 0.000473916 -0.0599999 -7.27536e-06 0.000455059 -0.0562499
-7.31781e-06 0.000436942 -0.0524999 -7.3128e-06 0.000419514 -0.0487498 -7.34749e-06 0.000404441 -0.0449998 -7.38281e-06
0.000389893 -0.0412498 -7.41875e-06 0.000375852 -0.0374998 -7.45532e-06 0.000362303 -0.0337498 -7.4926e-06 0.000349214
-0.0299998 -7.5205e-06 0.000340587 -0.0262498 -7.54898e-06 0.000332165 -0.0224998 -7.57803e-06 0.000323943 -0.0187499
-7.60764e-06 0.000315917 -0.0149999 -7.63691e-06 0.000308081 -0.0112499 -7.66168e-06 0.000304655 -0.0074999 -7.68677e-06
0.000301265 -0.00374991 -7.71218e-06 0.000297912 6.11924e-08 -7.73791e-06 0.000294594 0.00375005 -7.72268e-06 0.000291314
0.00750005 -7.74285e-06 0.000288082 0.01125 -7.7633e-06 0.000284884 0.015 -7.78401e-06 0.000281721 0.01875
-7.80499e-06 0.000278591 0.0225 -7.7912e-06 0.000277556 0.02625 -7.80888e-06 0.000276529 0.03 -7.82668e-06
0.000275506 0.03375 -7.8446e-06 0.000274487 0.0375 -7.86265e-06 0.000273471 0.04125 -7.84624e-06 0.000272984
0.045 -7.85679e-06 0.0002725 0.04875 -7.8674e-06 0.000272018 0.0525 -7.87808e-06 0.000271537 0.05625
-7.88882e-06 0.000271056 0.06 -7.89465e-06 0.000270858 0.06375 -7.89697e-06 0.000270663 0.0675 -7.89932e-06
0.000270468 0.07125 -7.90168e-06 0.000270273 0.075 -7.90407e-06 0.000270078 0.07875 -7.87768e-06 0.000270031
0.0825 -7.87167e-06 0.000269986 0.08625 -7.86564e-06 0.000269941 0.09 -7.85959e-06 0.000269896 0.09375
-7.85354e-06 0.000269852 0.0975 -7.82206e-06 0.000269857 0.10125 -7.80961e-06 0.000269863 0.105 -7.79713e-06
[...]
POINT_DATA 19438
FIELD attributes 3
age 1 19438 float
0 7.30143e-05 0.000146032 0.000219054 0.000292079 0.000365108 0.000553986 0.000742864 0.000931742 0.00112064 0.00130956
0.00138335 0.00145714 0.00153092 0.00160471 0.00167851 0.00179368 0.00190885 0.00202404 0.00213923 0.00225444
0.00244349 0.00263254 0.00282158 0.00301065 0.00319975 0.00338889 0.00357803 0.00376717 0.00395633 0.00414553
0.00433477 0.00452401 0.00471325 0.00490252 0.00509182 0.00528117 0.00547056 0.00566 0.00584946 0.00603893
0.00622839 0.0064179 0.00660746 0.00679704 0.00698663 0.00717621 0.00736585 0.00755554 0.00774526 0.00793498
0.0081247 0.00831447 0.0085043 0.00869416 0.00888402 0.00907388 0.0092638 0.00945378 0.0096438 0.00983381
0.0100238 0.0102139 0.010404 0.0105942 0.0107844 0.0109746 0.0111648 0.0113552 0.0115455 0.0117359
0.0119262 0.0121167 0.0123072 0.0124977 0.0126883 0.0128788 0.0130694 0.0132602 0.0134509 0.0136417
0.0138324 0.0140233 0.0142142 0.0144052 0.0145962 0.0147872 0.0149783 0.0151694 0.0153607 0.0155519
0.0157431 0.0159345 0.0161259 0.0163174 0.0165089 0.0167004 0.016892 0.0170838 0.0172755 0.0174673
0.0176591 0.017851 0.0180431 0.0182352 0.0184273 0.0186194 0.0188117 0.019004 0.0191965 0.0193889
0.0195814 0.019774 0.0199668 0.0201596 0.0203524 0.0205453 0.0207381 0.020931 0.0211239 0.021317
0.0215103 0.0217035 0.0218968 0.0220901 0.0222837 0.0224774 0.0226711 0.0228648 0.0230587 0.0232527
0.0234469 0.0236411 0.0238354 0.0240297 0.0242243 0.0244191 0.0246138 0.0248086 0.0250036 0.0251987
0.0253941 0.0255895 0.0257849 0.0259804 0.0261762 0.0263723 0.0265684 0.0267644 0.0269607 0.0271572
0.027354 0.0275508 0.0277476 0.0279447 0.028142 0.0283396 0.0285372 0.0287349 0.0289328 0.029131
0.0293295 0.029528 0.0297266 0.0299254 0.0301246 0.0303241 0.0305237 0.0307233 0.0309231 0.0311233
0.031324 0.0315247 0.0317253 0.0319263 0.0321278 0.0323296 0.0325315 0.0327334 0.0329356 0.0331384
0.0333416 0.0335448 0.033748 0.0339516 0.0341557 0.0343603 0.034565 0.0347697 0.0349747 0.0351803
0.0353865 0.0355927 0.0357989 0.0360055 0.0362127 0.0364205 0.0366288 0.0368378 0.0370472 0.0372566
0.037466 0.037676 0.0378865 0.0380975 0.0383085 0.0385194 0.0387308 0.0389428 0.0391552 0.0393675
0.0395797 0.0397924 0.0400056 0.040219 0.0404323 0.0406454 0.0408589 0.0410726 0.0412865 0.0415002
0.0417137 0.0419272 0.0421407 0.0423542 0.0425673 0.0427802 0.0429927 0.0432047 0.0434164 0.0436277
0.0438387 0.0440488 0.044258 0.0444666 0.0446749 0.0448827 0.0450891 0.0452939 0.0454983 0.0457022
0.0459058 0.0461072 0.0463066 0.0465057 0.0467045 0.046903 0.0470987 0.0472925 0.0474861 0.0476795
0.0478727 0.0480625 0.048251 0.0484395 0.0486279 0.0488162 0.0490009 0.0491851 0.0493695 0.0495539
0.0497385 0.0499197 0.0501011 0.0502828 0.0504646 0.0506466 0.0508266 0.0510067 0.0511869 0.0513674
0.051548 0.0517279 0.0519079 0.052088 0.0522681 0.0524484 0.0526287 0.052809 0.0529895 0.05317
0.0533506 0.0535313 0.053712 0.0538927 0.0540734 0.0542544 0.0544355 0.0546165 0.0547976 0.0549787
0.0551601 0.0553415 0.0555229 0.0557043 0.0558857 0.0560675 0.0562492 0.0564309 0.0566126 0.0567944
0.0569764 0.0571584 0.0573405 0.0575225 0.0577045 0.0578868 0.0580691 0.0582514 0.0584337 0.0586161
0.0587987 0.0589813 0.0591639 0.0593465 0.0595291 0.059712 0.0598949 0.0600778 0.0602607 0.0604436
0.0606268 0.06081 0.0609932 0.0611764 0.0613597 0.0615432 0.0617267 0.0619102 0.0620937 0.0622772
0.062461 0.0626448 0.0628286 0.0630124 0.0631962 0.0633803 0.0635644 0.0637485 0.0639326 0.0641166
0.064301 0.0644853 0.0646696 0.064854 0.0650383 0.0652229 0.0654074 0.065592 0.0657766 0.0659611
0.0661459 0.0663307 0.0665155 0.0667003 0.066885 0.06707 0.0672552 0.0674403 0.0676254 0.0678106
0.0679957 0.0681811 0.0683663 0.0685517 0.068737 0.0689223 0.0691077 0.0692931 0.0694786 0.069664
0.0698495 0.0700351 0.0702206 0.0704062 0.0705918 0.0707773 0.070963 0.0711487 0.0713343 0.07152
0.0717057 0.0718914 0.0720772 0.072263 0.0724487 0.0726345 0.0728203 0.0730061 0.0731919 0.0733778
0.0735636 0.0737495 0.0739353 0.0741212 0.074307 0.0744929 0.0746788 0.0748647 0.0750506 0.0752365
0.0754224 0.0756082 0.0757941 0.07598 0.0761659 0.0763187 0.0764714 0.0766242 0.076777 0.0768618
0.0769085 0.0769552 0.0770018 0.0770485 0.0770952 0.0772811 0.0774669 0.0776527 0.0778386 0.0780244
0.0782102 0.078396 0.0785818 0.0787676 0.0789534 0.0791391 0.0793249 0.0795106 0.0796964 0.0798821
0.0800679 0.0802536 0.0804394 0.0806251 0.0808108 0.0809966 0.0811823 0.0813681 0.0815538 0.0817396
0.0819253 0.0821111 0.0822968 0.0824826 0.0826683 0.0828541 0.0830399 0.0832257 0.0834115 0.0835973
0.0837831 0.083969 0.0841548 0.0843407 0.0845265 0.0847125 0.0848984 0.0850843 0.0852702 0.0854561
0.0856421 0.0858281 0.0860141 0.0862001 0.0863861 0.0865721 0.0867582 0.0869443 0.0871303 0.0873164
0.0875025 0.0876886 0.0878747 0.0880608 0.0882469 0.0884331 0.0886193 0.0888054 0.0889916 0.0891778
0.089364 0.0895502 0.0897364 0.0899226 0.0901088 0.0902951 0.0904814 0.0906676 0.0908539 0.0910401
0.0912265 0.0914128 0.091599 0.0917853 0.0919716 0.092158 0.0923443 0.0925307 0.092717 0.0929033
0.0930897 0.0932761 0.0934625 0.0936488 0.0938352 0.0940216 0.0942081 0.0943945 0.0945809 0.0947673
0.0949538 0.0951402 0.0953267 0.0955131 0.0956996 0.0958861 0.0960726 0.0962591 0.0964456 0.0966321
0.0968187 0.0970053 0.0971919 0.0973785 0.0975651 0.0977517 0.0979384 0.0981251 0.0983118 0.0984984
0.0986851 0.0988719 0.0990587 0.0992454 0.0994322 0.099619 0.0998058 0.0999927 0.10018 0.100366
0.100553 0.10074 0.100927 0.101114 0.101301 0.101488 0.101675 0.101862 0.102049 0.102236
0.102423 0.102611 0.102798 0.102985 0.103173 0.10336 0.103548 0.103735 0.103923 0.104111
0.104298 0.104486 0.104674 0.104863 0.105051 0.105239 0.105427 0.105616 0.105804 0.105993
0.106181 0.10637 0.106559 0.106748 0.106938 0.107126 0.107316 0.107505 0.107695 0.107884
0.108074 0.108263 0.108453 0.108643 0.108833 0.109022 0.109212 0.109402 0.109592 0.109782
0.109972 0.110162 0.110353 0.110543 0.110733 0.110923 0.111113 0.111304 0.111494 0.111684
0.111874 0.112064 0.112255 0.112445 0.112635 0.112825 0.113015 0.113206 0.113396 0.113586
0.113776 0.113967 0.114157 0.114347 0.114538 0.114728 0.114918 0.115109 0.115299 0.115489
0.115679 0.11587 0.11606 0.11625 0.116441 0.116631 0.116821 0.117012 0.117202 0.117392
0.117583 0.117773 0.117963 0.118154 0.118344 0.118534 0.118725 0.118915 0.119105 0.119296
0.119486 0.119676 0.119867 0.120057 0.120247 0.120437 0.120628 0.120818 0.121008 0.121199
0.121389 0.121579 0.12177 0.12196 0.12215 0.12234 0.122531 0.122721 0.122911 0.123101
0.123291 0.123482 0.123672 0.123862 0.124053 0.124243 0.124433 0.124623 0.124813 0.125003
0.125193 0.125384 0.125574 0.125764 0.125954 0.126144 0.126334 0.126524 0.126714 0.126905
0.127094 0.127284 0.127475 0.127665 0.127855 0.128044 0.128234 0.128424 0.128615 0.128805
0.128994 0.129184 0.129374 0.129564 0.129754 0.129944 0.130134 0.130324 0.130514 0.130703
0.130893 0.131083 0.131273 0.131463 0.131653 0.131842 0.132032 0.132222 0.132412 0.132601
0.132791 0.132981 0.13317 0.13336 0.13355 0.133739 0.133929 0.134119 0.134309 0.134499
0.134688 0.134878 0.135067 0.135257 0.135447 0.135636 0.135826 0.136015 0.136205 0.136395
0.136584 0.136774 0.136964 0.137153 0.137343 0.137532 0.137722 0.137911 0.138101 0.138291
0.13848 0.13867 0.138859 0.139049 0.139239 0.139428 0.139617 0.139807 0.139997 0.140186
0.140375 0.140565 0.140755 0.140944 0.141134 0.141323 0.141513 0.141702 0.141892 0.142082
0.142271 0.14246 0.14265 0.142839 0.143029 0.143218 0.143407 0.143597 0.143786 0.143976
0.144165 0.144354 0.144544 0.144733 0.144923 0.145111 0.145301 0.14549 0.145679 0.145869
0.146057 0.146247 0.146436 0.146625 0.146815 0.147003 0.147192 0.147382 0.147571 0.14776
0.147948 0.148138 0.148327 0.148516 0.148705 0.148893 0.149082 0.149271 0.14946 0.149649
0.149838 0.150027 0.150216 0.150404 0.150593 0.150782 0.15097 0.151159 0.151348 0.151537
0.151913 0.15229 0.152666 0.153043 0.153419 0.15417 0.154921 0.155672 0.156423 0.157174
0.158675 0.160176 0.161676 0.163177 0.164677 0.166177 0.167678 0.169178 0.170678 0.172178
0.175179 0.178179 0.181179 0.184179 0.187179 0.193179 0.199179 0.20518 0.21118 0.21718
0.22318 0.22918 0.23518 0.24118 0.24718 0.25318 0.25918 0.26518 0.27118 0.27718
0.28318 0.28918 0.29518 0.30118 0.30718 0.31318 0.31918 0.32518 0.33118 0.33718
0.34318 0.34918 0.355181 0.361181 0.367181 0.373181 0.379181 0.385181 0.391181 0.397181
0.403181 0.403229 0 7.36861e-05 0.000147376 0.00022107 0.000294768 0.00036847 0.000441255 0.000514046
0.000586841 0.000659641 0.000731659 0.000849692 0.000967737 0.0010858 0.00120387 0.00132195 0.00151274 0.00170357
0.00189443 0.00208532 0.00227625 0.00246722 0.00265823 0.00284927 0.00304035 0.00323147 0.00342262 0.00361382
0.00380505 0.00399633 0.00418765 0.00437901 0.00457041 0.00476185 0.00495334 0.00514487 0.00533645 0.00552807
0.00571974 0.00591145 0.00610322 0.00629502 0.00648688 0.00667879 0.00687075 0.00706276 0.00725481 0.00744693
0.00763909 0.00783131 0.00802358 0.00821591 0.00840829 0.00860073 0.00879323 0.00898579 0.00917841 0.00937108
0.00956382 0.00975662 0.00994949 0.0101424 0.0103354 0.0105285 0.0107216 0.0109148 0.0111081 0.0113014
0.0114948 0.0116883 0.0118818 0.0120754 0.0122692 0.0124629 0.0126568 0.0128507 0.0130447 0.0132388
0.013433 0.0136273 0.0138217 0.0140161 0.0142106 0.0144052 0.0146 0.0147948 0.0149897 0.0151847
0.0153798 0.015575 0.0157703 0.0159657 0.0161612 0.0163568 0.0165525 0.0167483 0.0169443 0.0171403
0.0173365 0.0175328 0.0177292 0.0179258 0.0181224 0.0183192 0.0185161 0.0187132 0.0189104 0.0191077
0.0193051 0.0195027 0.0197005 0.0198984 0.0200964 0.0202946 0.0204929 0.0206914 0.0208901 0.0210889
0.0212879 0.0214871 0.0216864 0.0218859 0.0220856 0.0222855 0.0224855 0.0226858 0.0228862 0.0230869
0.0232877 0.0234888 0.02369 0.0238915 0.0240932 0.0242951 0.0244972 0.0246996 0.0249022 0.025105
0.0253081 0.0255115 0.0257151 0.0259189 0.0261231 0.0263275 0.0265322 0.0267371 0.0269424 0.0271479
0.0273538 0.0275599 0.0277664 0.0279732 0.0281804 0.0283878 0.0285957 0.0288038 0.0290123 0.0292212
0.0294305 0.0296402 0.0298502 0.0300607 0.0302716 0.0304829 0.0306946 0.0309068 0.0311194 0.0313324
0.031546 0.03176 0.0319746 0.0321896 0.0324051 0.0326212 0.0328379 0.0330551 0.0332728 0.0334912
0.0337101 0.0339297 0.0341498 0.0343706 0.0345921 0.0348143 0.0350372 0.0352608 0.035485 0.03571
0.0359358 0.0361624 0.0363897 0.0366179 0.0368469 0.0370768 0.0373076 0.0375393 0.0377718 0.0380053
0.0382398 0.0384752 0.0387117 0.0389491 0.0391877 0.0394274 0.0396682 0.03991 0.040153 0.0403971
0.0406424 0.0408888 0.0411366 0.0413856 0.0416359 0.0418874 0.0421403 0.0423946 0.04265 0.0429066
0.0431643 0.0434234 0.0436842 0.0439461 0.0442092 0.0444735 0.0447388 0.0450061 0.0452738 0.0455421
0.045811 0.0460803 0.0463521 0.0464784 0.0466047 0.046731 0.0468571 0.0469367 0.0470913 0.0472457
0.0474 0.0475541 0.0477092 0.0479799 0.0482489 0.048516 0.0487812 0.0490496 0.049195 0.0493394
0.0494825 0.0496246 0.0497343 0.0498552 0.0499754 0.0500947 0.0502133 0.0503321 0.0505794 0.0508216
0.0510589 0.0512914 0.0515204 0.0515355 0.0515506 0.0515656 0.0515806 0.0515956 0.0518026 0.0520049
0.0522029 0.0523966 0.0525842 0.0526952 0.0528045 0.0529122 0.0530185 0.0531518 0.0532265 0.0533006
0.053374 0.0534467 0.0535183 0.0536926 0.0538633 0.0540306 0.0541945 0.0543521 0.0544901 0.0546266
0.0547616 0.0548951 0.055118 0.055132 0.055146 0.0551601 0.0551741 0.05519 0.0553221 0.0554536
0.0555846 0.0557151 0.0558443 0.0559871 0.0561301 0.0562733 0.0564166 0.0565597 0.056703 0.0568466
0.0569905 0.0571348 0.0572794 0.0574244 0.0575698 0.0577155 0.0578616 0.058008 0.0581548 0.0583019
0.0584493 0.058597 0.0587451 0.0588934 0.0590421 0.0591911 0.0593404 0.0594901 0.05964 0.0597902
0.0599407 0.0600915 0.0602426 0.060394 0.0605458 0.0606978 0.0608502 0.0610028 0.0611558 0.0613091
0.0614627 0.0616166 0.0617709 0.0619255 0.0620804 0.0622357 0.0623914 0.0625473 0.0627036 0.0628603
0.0630173 0.0631747 0.0633324 0.0634904 0.0636488 0.0638076 0.0639666 0.0641261 0.0642858 0.064446
0.0646064 0.0647671 0.0649282 0.0650897 0.0652514 0.0654135 0.0655759 0.0657386 0.0659016 0.0660649
0.0662285 0.0663924 0.0665566 0.0667211 0.0668859 0.067051 0.0672163 0.0673819 0.0675478 0.0677139
0.0678802 0.0680469 0.0682137 0.0683809 0.0685483 0.0687159 0.0688837 0.0690518 0.0692201 0.0693886
0.0695573 0.0697263 0.0698954 0.0700648 0.0702343 0.0704041 0.070574 0.0707442 0.0709145 0.071085
0.0712557 0.0714265 0.0715975 0.0717687 0.07194 0.0721115 0.0722832 0.072455 0.0726269 0.072799
0.0729712 0.0731435 0.073316 0.0734885 0.0736612 0.073834 0.0740069 0.0741799 0.074353 0.0745261
0.0746993 0.0748726 0.075046 0.0751145 0.0751829 0.0752514 0.0753199 0.0753936 0.0754976 0.0756016
0.0757057 0.0758097 0.0759138 0.0760874 0.0762611 0.0764347 0.0766084 0.0767821 0.0769558 0.0771295
0.0773031 0.0774768 0.0776504 0.077824 0.0779976 0.0781711 0.0783445 0.078518 0.0786913 0.0788647
0.079038 0.0792113 0.0793845 0.0795576 0.0797307 0.0799037 0.0800767 0.0802497 0.0804226 0.0805955
0.0807684 0.0809413 0.0811142 0.0812871 0.0814599 0.0816328 0.0818058 0.0819787 0.0821517 0.0823248
0.0824979 0.0826711 0.0828443 0.0830176 0.083191 0.0833645 0.0835381 0.0837118 0.0838856 0.0840595
0.0842335 0.0844076 0.0845819 0.0847562 0.0849306 0.0851052 0.0852799 0.0854546 0.0856296 0.0858046
0.0859798 0.086155 0.0863304 0.0865059 0.0866814 0.0868571 0.0870329 0.0872088 0.0873848 0.0875609
0.0877371 0.0879134 0.0880898 0.0882663 0.0884428 0.0886195 0.0887962 0.088973 0.08915 0.089327
0.0895041 0.0896813 0.0898585 0.0900359 0.0902133 0.0903908 0.0905683 0.0907459 0.0909237 0.0911015
0.0912794 0.0914574 0.0916354 0.0918136 0.0919918 0.09217 0.0923484 0.0925268 0.0927053 0.0928839
0.0930626 0.0932414 0.0934202 0.0935992 0.0937782 0.0939572 0.0941363 0.0943156 0.094495 0.0946744
0.0948539 0.0950335 0.0952132 0.095393 0.0955729 0.0957528 0.0959329 0.096113 0.0962933 0.0964737
0.0966542 0.0968348 0.0970155 0.0971965 0.0973775 0.0975587 0.09774 0.0979216 0.0981038 0.0982861
0.0984687 0.0986514 0.0988343 0.0990165 0.0991987 0.0993811 0.0995636 0.0997463 0.0999293 0.100112
0.100296 0.100479 0.100662 0.100846 0.10103 0.101214 0.101399 0.101584 0.101769 0.101954
0.10214 0.102327 0.102514 0.102702 0.10289 0.103079 0.103268 0.103459 0.10365 0.103842
0.104035 0.104229 0.104424 0.10462 0.104817 0.105015 0.105214 0.105414 0.105616 0.105819
0.106024 0.10623 0.106437 0.106646 0.106856 0.107067 0.107279 0.107494 0.10771 0.107928
0.108148 0.108369 0.108592 0.108817 0.109043 0.109271 0.1095 0.109731 0.109964 0.110199
0.110436 0.110674 0.110914 0.111155 0.111398 0.111643 0.111889 0.112137 0.112387 0.112638
0.11289 0.113144 0.1134 0.113657 0.113915 0.114175 0.114436 0.114699 0.114962 0.115227
0.115493 0.115761 0.116029 0.116299 0.116569 0.116841 0.117113 0.117387 0.117661 0.117936
0.118212 0.118489 0.118766 0.119044 0.119323 0.119602 0.119881 0.120162 0.120442 0.120723
0.121004 0.121286 0.121567 0.121615 0.121663 0.121711 0.121758 0.121805 0.12204 0.122274
0.122509 0.122744 0.122978 0.12326 0.123543 0.123825 0.124108 0.12439 0.124671 0.124953
0.125235 0.125516 0.125798 0.126077 0.126358 0.126639 0.126919 0.127198 0.127476 0.127755
0.128033 0.128311 0.128589 0.128865 0.129141 0.129418 0.129694 0.12997 0.130243 0.130518
0.130792 0.131065 0.131338 0.13161 0.131882 0.132154 0.132426 0.132696 0.132966 0.133236
0.133505 0.133775 0.134044 0.134311 0.134579 0.134846 0.135113 0.13538 0.135645 0.135911
0.136176 0.136441 0.136706 0.136969 0.137232 0.137496 0.137759 0.138021 0.138183 0.138345
0.138507 0.138669 0.138843 0.13894 0.139037 0.139134 0.13923 0.139327 0.139587 0.139847
0.140107 0.140366 0.140625 0.140883 0.141142 0.1414 0.141657 0.141915 0.142171 0.142428
0.142685 0.142942 0.143198 0.143453 0.143708 0.143964 0.144219 0.144474 0.144727 0.144982
0.145236 0.145491 0.145744 0.145996 0.146249 0.146503 0.146756 0.147009 0.147259 0.147511
0.147764 0.148017 0.148268 0.148517 0.148768 0.14902 0.149272 0.149522 0.14977 0.15002
0.150271 0.150522 0.150771 0.151018 0.151266 0.151516 0.151766 0.152014 0.152259 0.152506
0.152755 0.153004 0.153251 0.153495 0.153741 0.153989 0.154236 0.154482 0.154725 0.154969
0.155216 0.155462 0.155706 0.155948 0.156192 0.156437 0.156681 0.156924 0.157165 0.157407
0.157651 0.157894 0.158135 0.158375 0.158616 0.158858 0.159099 0.15934 0.159578 0.159818
0.160059 0.160299 0.160538 0.160775 0.161014 0.161253 0.161492 0.16173 0.161966 0.162204
0.162441 0.162678 0.162915 0.16315 0.163386 0.163622 0.163857 0.164093 0.164327 0.164561
0.164796 0.16503 0.165263 0.165496 0.165729 0.165962 0.166195 0.166427 0.166475 0.166523
0.16657 0.166618 0.166665 0.16708 0.167493 0.167905 0.168315 0.168701 0.169512 0.170327
0.17114 0.17195 0.172756 0.174291 0.175831 0.177367 0.178898 0.180426 0.181936 0.18345
0.184964 0.186476 0.187987 0.190996 0.194008 0.197018 0.200027 0.203035 0.20904 0.215046
0.221052 0.227057 0.233062 0.239063 0.245066 0.251069 0.257072 0.263075 0.269076 0.275078
0.281081 0.287083 0.293085 0.299086 0.305088 0.31109 0.317092 0.323094 0.329094 0.335096
0.341097 0.347099 0.353101 0.359101 0.365102 0.371104 0.377105 0.383106 0.389107 0.395108
0.401109 0.40711 0.413111 0.419112 0.42221 0 7.3662e-05 0.000147329 0.000221 0.000294676
0.000368357 0.000443394 0.000518437 0.000593484 0.000668537 0.000742937 0.000858636 0.000974347 0.00109007 0.00120581
0.00132155 0.00151228 0.00170305 0.00189385 0.00208468 0.00227555 0.00246645 0.00265739 0.00284837 0.00303938
0.00323043 0.00342152 0.00361264 0.00380381 0.00399502 0.00418626 0.00437755 0.00456887 0.00476024 0.00495165
0.00514311 0.0053346 0.00552615 0.00571773 0.00590936 0.00610104 0.00629276 0.00648454 0.00667635 0.00686822
0.00706014 0.00725211 0.00744412 0.00763619 0.00782832 0.00802049 0.00821272 0.008405 0.00859734 0.00878973
0.00898218 0.00917469 0.00936726 0.00955988 0.00975257 0.00994532 0.0101381 0.010331 0.0105239 0.0107169
0.01091 0.0111032 0.0112964 0.0114896 0.011683 0.0118764 0.0120699 0.0122634 0.0124571 0.0126508
0.0128446 0.0130384 0.0132324 0.0134264 0.0136205 0.0138147 0.014009 0.0142034 0.0143978 0.0145924
0.014787 0.0149817 0.0151765 0.0153714 0.0155664 0.0157615 0.0159568 0.0161521 0.0163475 0.016543
0.0167386 0.0169343 0.0171302 0.0173261 0.0175222 0.0177184 0.0179147 0.0181111 0.0183077 0.0185044
0.0187012 0.0188981 0.0190951 0.0192923 0.0194897 0.0196871 0.0198848 0.0200825 0.0202804 0.0204785
0.0206767 0.0208751 0.0210736 0.0212723 0.0214711 0.0216701 0.0218693 0.0220687 0.0222682 0.0224679
0.0226678 0.0228679 0.0230682 0.0232687 0.0234694 0.0236703 0.0238714 0.0240727 0.0242742 0.024476
0.0246779 0.0248801 0.0250826 0.0252853 0.0254882 0.0256914 0.0258948 0.0260985 0.0263025 0.0265068
0.0267113 0.0269161 0.0271212 0.0273266 0.0275324 0.0277384 0.0279447 0.0281514 0.0283585 0.0285658
0.0287736 0.0289816 0.0291901 0.029399 0.0296082 0.0298178 0.0298581 0.0298984 0.0299386 0.0299789
0.0300183 0.0301886 0.0303592 0.0305301 0.0307013 0.0308727 0.031085 0.0312977 0.031511 0.0317247
0.031939 0.0321538 0.0323691 0.0325851 0.0328016 0.0330187 0.0332364 0.0334547 0.0336737 0.0338934
0.0341138 0.0343348 0.0345567 0.0347793 0.0350027 0.0352269 0.0354519 0.0356778 0.0359046 0.0361323
0.036361 0.0365906 0.0368214 0.0370532 0.0372861 0.0375202 0.0377553 0.0379918 0.0382295 0.0384686
0.038709 0.0389509 0.0391943 0.0394394 0.0396862 0.0399345 0.0401846 0.0404365 0.0406904 0.0409464
0.0412044 0.0414644 0.041727 0.0419921 0.0422598 0.0425301 0.0428037 0.0430803 0.0433601 0.0436432
0.0439299 0.0442195 0.0445132 0.0448111 0.0451133 0.0454209 0.0457307 0.0460451 0.046364 0.0466876
0.0470214 0.0471772 0.0473344 0.0474926 0.0476517 0.047729 0.0479358 0.048144 0.0483534 0.048564
0.0487831 0.0490826 0.0493842 0.0496874 0.0499896 0.0500805 0.0502005 0.0503202 0.0504395 0.0505585
0.0506821 0.0508783 0.0510723 0.0512642 0.0514538 0.0515773 0.051782 0.0519832 0.0521808 0.0523749
0.0525805 0.0526067 0.0526327 0.0526587 0.0526846 0.0527097 0.0529103 0.0531054 0.0532953 0.0534805