# vtk DataFile Version 2.0
tracks
ASCII
DATASET POLYDATA
POINTS 19459 float
-1.001 1e-07 0.0011 -0.99955 9.61981e-08 0.00110004 -0.9981 9.23959e-08 0.00110008 -0.99665 8.85932e-08
0.00110011 -0.9952 8.47901e-08 0.00110015 -0.99375 8.09866e-08 0.00110019 -0.99 7.11331e-08 0.00110029
-0.98625 6.11496e-08 0.00110041 -0.9825 5.1021e-08 0.00110055 -0.97875 4.08165e-08 0.0011007 -0.975
3.06086e-08 0.00110085 -0.972753 2.44869e-08 0.00110094 -0.970506 1.83151e-08 0.00110104 -0.968259 1.20898e-08
0.00110113 -0.966012 5.81094e-09 0.00110123 -0.96395 1.65315e-17 0.00110133 -0.96241 -4.34805e-09 0.0011014
-0.96087 -8.69671e-09 0.00110147 -0.95933 -1.3046e-08 0.00110154 -0.95779 -1.73959e-08 0.00110161 -0.95625
-2.17464e-08 0.00110168 -0.9525 -3.23371e-08 0.00110185 -0.94875 -4.30833e-08 0.00110202 -0.945 -5.39808e-08
0.0011022 -0.94125 -6.49582e-08 0.00110237 -0.9375 -7.59395e-08 0.00110255 -0.93375 -8.69181e-08 0.00110273
-0.93 -9.80564e-08 0.00110291 -0.92625 -1.09348e-07 0.0011031 -0.9225 -1.2072e-07 0.00110328 -0.91875
-1.32097e-07 0.00110347 -0.915 -1.43466e-07 0.00110365 -0.91125 -1.55002e-07 0.00110384 -0.9075 -1.66691e-07
0.00110403 -0.90375 -1.78463e-07 0.00110423 -0.9 -1.90239e-07 0.00110442 -0.89625 -2.02004e-07 0.00110461
-0.8925 -2.1379e-07 0.00110481 -0.88875 -2.25581e-07 0.001105 -0.885 -2.37455e-07 0.0011052 -0.88125
-2.49486e-07 0.0011054 -0.8775 -2.61622e-07 0.0011056 -0.87375 -2.73816e-07 0.00110581 -0.87 -2.86015e-07
0.00110601 -0.86625 -2.98299e-07 0.00110622 -0.8625 -3.10743e-07 0.00110643 -0.85875 -3.23279e-07 0.00110665
-0.855 -3.3589e-07 0.00110687 -0.85125 -3.48506e-07 0.00110708 -0.8475 -3.61209e-07 0.0011073 -0.84375
-3.74074e-07 0.00110753 -0.84 -3.87074e-07 0.00110776 -0.83625 -4.00109e-07 0.00110799 -0.8325 -4.13151e-07
0.00110822 -0.82875 -4.26282e-07 0.00110845 -0.825 -4.3958e-07 0.00110869 -0.82125 -4.52942e-07 0.00110894
-0.8175 -4.66415e-07 0.00110918 -0.81375 -4.79895e-07 0.00110943 -0.81 -4.93468e-07 0.00110968 -0.80625
-5.07209e-07 0.00110993 -0.8025 -5.20999e-07 0.00111019 -0.79875 -5.34923e-07 0.00111045 -0.795 -5.48854e-07
0.00111072 -0.79125 -5.6288e-07 0.00111098 -0.7875 -5.77081e-07 0.00111126 -0.78375 -5.91419e-07 0.00111154
-0.78 -6.05809e-07 0.00111182 -0.77625 -6.20206e-07 0.0011121 -0.7725 -6.34702e-07 0.00111238 -0.76875
-6.49378e-07 0.00111267 -0.765 -6.64193e-07 0.00111297 -0.76125 -6.79066e-07 0.00111327 -0.7575 -6.93946e-07
0.00111357 -0.75375 -7.0893e-07 0.00111388 -0.75 -7.24096e-07 0.00111419 -0.74625 -7.39245e-07 0.00111451
-0.7425 -7.54616e-07 0.00111483 -0.73875 -7.69996e-07 0.00111515 -0.735 -7.85483e-07 0.00111548 -0.73125
-8.0116e-07 0.00111581 -0.7275 -8.16791e-07 0.00111616 -0.72375 -8.32682e-07 0.0011165 -0.72 -8.48583e-07
0.00111685 -0.71625 -8.64596e-07 0.0011172 -0.7125 -8.80807e-07 0.00111756 -0.70875 -8.96941e-07 0.00111793
-0.705 -9.13378e-07 0.0011183 -0.70125 -9.29827e-07 0.00111867 -0.6975 -9.46394e-07 0.00111905 -0.69375
-9.63168e-07 0.00111943 -0.69 -9.801e-07 0.00111983 -0.68625 -9.97114e-07 0.00112023 -0.6825 -1.01414e-06
0.00112063 -0.67875 -1.03129e-06 0.00112103 -0.675 -1.04866e-06 0.00112145 -0.67125 -1.06587e-06 0.00112188
-0.6675 -1.08349e-06 0.0011223 -0.66375 -1.10113e-06 0.00112273 -0.66 -1.1189e-06 0.00112317 -0.65625
-1.13689e-06 0.00112361 -0.6525 -1.15468e-06 0.00112407 -0.64875 -1.17294e-06 0.00112453 -0.645 -1.19122e-06
0.00112499 -0.64125 -1.20965e-06 0.00112546 -0.6375 -1.2283e-06 0.00112594 -0.63375 -1.24715e-06 0.00112644
-0.63 -1.2661e-06 0.00112693 -0.62625 -1.28507e-06 0.00112743 -0.6225 -1.30418e-06 0.00112793 -0.61875
-1.32355e-06 0.00112845 -0.615 -1.34312e-06 0.00112898 -0.61125 -1.3628e-06 0.00112951 -0.6075 -1.3825e-06
0.00113005 -0.60375 -1.40236e-06 0.00113059 -0.6 -1.42249e-06 0.00113114 -0.59625 -1.44283e-06 0.00113171
-0.5925 -1.46329e-06 0.00113229 -0.58875 -1.48378e-06 0.00113286 -0.585 -1.50444e-06 0.00113344 -0.58125
-1.52537e-06 0.00113404 -0.5775 -1.5458e-06 0.00113465 -0.57375 -1.56711e-06 0.00113527 -0.57 -1.58844e-06
0.00113588 -0.56625 -1.60996e-06 0.00113651 -0.5625 -1.63177e-06 0.00113715 -0.55875 -1.65297e-06 0.00113781
-0.555 -1.67519e-06 0.00113847 -0.55125 -1.69744e-06 0.00113913 -0.5475 -1.71989e-06 0.00113981 -0.54375
-1.74266e-06 0.0011405 -0.54 -1.76572e-06 0.0011412 -0.53625 -1.78894e-06 0.00114191 -0.5325 -1.81218e-06
0.00114262 -0.52875 -1.83565e-06 0.00114334 -0.525 -1.85945e-06 0.00114408 -0.52125 -1.88234e-06 0.00114484
-0.5175 -1.90664e-06 0.0011456 -0.51375 -1.93097e-06 0.00114636 -0.51 -1.95554e-06 0.00114713 -0.50625
-1.98046e-06 0.00114792 -0.5025 -2.00428e-06 0.00114873 -0.49875 -2.02976e-06 0.00114954 -0.495 -2.05527e-06
0.00115035 -0.49125 -2.08104e-06 0.00115117 -0.4875 -2.10719e-06 0.00115201 -0.48375 -2.13374e-06 0.00115287
-0.48 -2.1605e-06 0.00115373 -0.47625 -2.1873e-06 0.00115459 -0.4725 -2.21437e-06 0.00115547 -0.46875
-2.24185e-06 0.00115636 -0.465 -2.26977e-06 0.00115727 -0.46125 -2.29792e-06 0.00115818 -0.4575 -2.32612e-06
0.00115909 -0.45375 -2.35461e-06 0.00116001 -0.45 -2.38354e-06 0.00116095 -0.44625 -2.41049e-06 0.0011619
-0.4425 -2.44056e-06 0.00116287 -0.43875 -2.47108e-06 0.00116384 -0.435 -2.50193e-06 0.00116483 -0.43125
-2.53283e-06 0.00116582 -0.4275 -2.56094e-06 0.00116681 -0.42375 -2.5927e-06 0.0011678 -0.42 -2.62494e-06
0.0011688 -0.41625 -2.65752e-06 0.00116981 -0.4125 -2.69017e-06 0.00117082 -0.40875 -2.7195e-06 0.00117183
-0.405 -2.75311e-06 0.00117283 -0.40125 -2.78722e-06 0.00117384 -0.3975 -2.8217e-06 0.00117484 -0.39375
-2.85626e-06 0.00117585 -0.39 -2.89111e-06 0.00117685 -0.38625 -2.92674e-06 0.00117784 -0.3825 -2.96291e-06
0.00117882 -0.37875 -2.99946e-06 0.00117978 -0.375 -3.0361e-06 0.00118075 -0.37125 -3.07311e-06 0.00118171
-0.3675 -3.11096e-06 0.00118264 -0.36375 -3.14935e-06 0.00118353 -0.36 -3.18815e-06 0.0011844 -0.35625
-3.22704e-06 0.00118527 -0.3525 -3.26025e-06 0.00118613 -0.34875 -3.30048e-06 0.00118694 -0.345 -3.34126e-06
0.00118768 -0.34125 -3.38246e-06 0.00118837 -0.3375 -3.42376e-06 0.00118906 -0.33375 -3.45824e-06 0.00118976
-0.33 -3.50104e-06 0.00119035 -0.32625 -3.54439e-06 0.00119084 -0.3225 -3.58815e-06 0.00119125 -0.31875
-3.63204e-06 0.00119166 -0.315 -3.67666e-06 0.00119208 -0.31125 -3.72222e-06 0.00119233 -0.3075 -3.76829e-06
0.00119243 -0.30375 -3.81477e-06 0.00119242 -0.3 -3.86137e-06 0.0011924 -0.29625 -3.89804e-06 0.00119238
-0.2925 -3.94647e-06 0.00119214 -0.28875 -3.99536e-06 0.00119165 -0.285 -4.04462e-06 0.001191 -0.28125
-4.094e-06 0.00119035 -0.2775 -4.1314e-06 0.0011897 -0.27375 -4.18272e-06 0.00118871 -0.27 -4.23438e-06
0.00118739 -0.26625 -4.28632e-06 0.00118583 -0.2625 -4.33836e-06 0.00118427 -0.25875 -4.37599e-06 0.00118272
-0.255 -4.43007e-06 0.00118068 -0.25125 -4.48432e-06 0.00117816 -0.2475 -4.53871e-06 0.00117531 -0.24375
-4.59319e-06 0.00117247 -0.24 -4.64933e-06 0.00116964 -0.23625 -4.70595e-06 0.00116617 -0.2325 -4.76245e-06
0.00116207 -0.22875 -4.81889e-06 0.00115757 -0.225 -4.8754e-06 0.00115308 -0.22125 -4.91115e-06 0.00114861
-0.2175 -4.96922e-06 0.00114329 -0.21375 -5.02663e-06 0.0011371 -0.21 -5.08364e-06 0.00113042 -0.20625
-5.14068e-06 0.00112378 -0.2025 -5.17342e-06 0.00111718 -0.19875 -5.23282e-06 0.00110938 -0.195 -5.29098e-06
0.00110038 -0.19125 -5.34847e-06 0.0010908 -0.1875 -5.40596e-06 0.00108132 -0.18375 -5.46518e-06 0.00107193
-0.18 -5.5227e-06 0.00106101 -0.17625 -5.57809e-06 0.0010486 -0.1725 -5.63256e-06 0.00103568 -0.16875
-5.68699e-06 0.00102293 -0.165 -5.744e-06 0.00101036 -0.16125 -5.79796e-06 0.000996016 -0.1575 -5.84869e-06
0.000979928 -0.15375 -5.89856e-06 0.000963611 -0.15 -5.94842e-06 0.000947595 -0.14625 -6.00115e-06 0.000931868
-0.1425 -6.05376e-06 0.000916432 -0.13875 -6.10641e-06 0.00090128 -0.135 -6.15879e-06 0.000886274 -0.13125
-6.20579e-06 0.000869337 -0.1275 -6.20712e-06 0.000850539 -0.12375 -6.251e-06 0.000832187 -0.12 -6.29508e-06
0.000814264 -0.11625 -6.33935e-06 0.000796758 -0.1125 -6.37891e-06 0.000777609 -0.10875 -6.37023e-06 0.00075654
-0.105 -6.40614e-06 0.000736084 -0.10125 -6.44247e-06 0.000716213 -0.0974999 -6.47922e-06 0.000696909 -0.0937499
-6.50996e-06 0.000676602 -0.0899999 -6.53299e-06 0.000654401 -0.0862499 -6.55556e-06 0.000632962 -0.0824999 -6.57901e-06
0.000612248 -0.0787499 -6.6033e-06 0.000592232 -0.0749999 -6.62599e-06 0.000572085 -0.0712499 -6.64444e-06 0.000550451
-0.0674999 -6.66235e-06 0.000529656 -0.0637499 -6.68137e-06 0.000509652 -0.0599998 -6.70147e-06 0.000490407 -0.0562499
-6.72181e-06 0.000471787 -0.0524999 -6.69282e-06 0.000453011 -0.0487498 -6.7069e-06 0.000434989 -0.0449998 -6.72218e-06
0.000417674 -0.0412498 -6.73863e-06 0.000401038 -0.0374998 -6.75622e-06 0.000385057 -0.0337498 -6.76116e-06 0.000371188
-0.0299999 -6.76496e-06 0.000357822 -0.0262499 -6.77008e-06 0.000344925 -0.0224999 -6.77648e-06 0.00033248 -0.0187499
-6.78413e-06 0.000320473 -0.0149999 -6.7798e-06 0.000312534 -0.0112499 -6.77366e-06 0.000304803 -0.00749991 -6.76854e-06
0.000297256 -0.00374992 -6.7644e-06 0.000289891 6.11917e-08 -6.76123e-06 0.000282702 0.00375005 -6.71306e-06 0.000279552
0.00750005 -6.69578e-06 0.000276447 0.01125 -6.67895e-06 0.000273376 0.015 -6.66256e-06 0.000270337 0.01875
-6.6466e-06 0.000267331 0.0225 -6.5933e-06 0.000266337 0.02625 -6.56645e-06 0.000265351 0.03 -6.53968e-06
0.000264368 0.03375 -6.513e-06 0.000263389 0.0375 -6.4864e-06 0.000262413 0.04125 -6.42256e-06 0.000261946
0.045 -6.38047e-06 0.000261482 0.04875 -6.33834e-06 0.000261018 0.0525 -6.29618e-06 0.000260556 0.05625
-6.25399e-06 0.000260094 0.06 -6.19644e-06 0.000259905 0.06375 -6.13549e-06 0.000259717 0.0675 -6.07442e-06
0.00025953 0.07125 -6.01324e-06 0.000259342 0.075 -5.95194e-06 0.000259155 0.07875 -5.85572e-06 0.000259111
0.0825 -5.7741e-06 0.000259068 0.08625 -5.69229e-06 0.000259025 0.09 -5.6103e-06 0.000258982 0.09375
-5.52812e-06 0.00025894 0.0975 -5.41391e-06 0.000258946 0.10125 -5.31228e-06 0.000258953 0.105 -5.21041e-06
0.00025896 0.10875 -5.1083e-06 0.000258967 0.1125 -5.00595e-06 0.000258975 0.11625 -4.89242e-06 0.000258994
[...]
POINT_DATA 19459
FIELD attributes 3
age 1 19459 float
0 7.30343e-05 0.000146069 0.000219103 0.000292137 0.000365172 0.000554054 0.000742968 0.000931915 0.00112088 0.00130984
0.00142307 0.0015363 0.00164955 0.00176281 0.00186676 0.0019444 0.00202204 0.00209968 0.00217732 0.00225496
0.00244401 0.0026331 0.00282222 0.00301137 0.00320051 0.00338966 0.00357884 0.00376807 0.00395731 0.00414656
0.0043358 0.00452509 0.00471442 0.00490377 0.00509312 0.00528248 0.00547183 0.00566118 0.00585056 0.00603998
0.00622945 0.00641892 0.00660839 0.00679788 0.00698743 0.00717702 0.00736661 0.0075562 0.00774582 0.0079355
0.00812522 0.00831494 0.00850467 0.00869443 0.00888424 0.0090741 0.00926397 0.00945384 0.00964374 0.0098337
0.0100237 0.0102137 0.0104038 0.0105938 0.0107839 0.0109741 0.0111643 0.0113545 0.0115447 0.011735
0.0119254 0.0121158 0.0123061 0.0124965 0.012687 0.0128776 0.0130681 0.0132587 0.0134493 0.01364
0.0138307 0.0140215 0.0142123 0.0144031 0.014594 0.014785 0.014976 0.015167 0.015358 0.0155492
0.0157404 0.0159317 0.0161229 0.0163142 0.0165056 0.0166971 0.0168886 0.0170801 0.0172717 0.0174634
0.0176552 0.017847 0.0180388 0.0182307 0.0184227 0.0186148 0.0188069 0.018999 0.0191912 0.0193836
0.019576 0.0197685 0.019961 0.0201535 0.0203462 0.0205391 0.0207319 0.0209248 0.0211177 0.0213108
0.0215041 0.0216974 0.0218906 0.022084 0.0222776 0.0224713 0.022665 0.0228587 0.0230526 0.0232466
0.0234408 0.0236351 0.0238293 0.0240237 0.0242182 0.024413 0.0246078 0.0248026 0.0249975 0.0251927
0.0253881 0.0255835 0.0257789 0.0259744 0.0261703 0.0263663 0.0265624 0.0267585 0.0269547 0.0271513
0.0273481 0.0275449 0.0277417 0.0279388 0.0281361 0.0283337 0.0285317 0.02873 0.0289285 0.0291271
0.0293256 0.0295245 0.0297238 0.0299233 0.0301229 0.0303224 0.0305224 0.0307228 0.0309234 0.031124
0.0313247 0.0315258 0.0317274 0.0319292 0.0321311 0.0323329 0.0325353 0.0327382 0.0329413 0.0331445
0.0333477 0.0335515 0.0337557 0.0339603 0.0341649 0.0343696 0.0345748 0.0347805 0.0349867 0.0351928
0.035399 0.0356057 0.035813 0.0360208 0.0362285 0.0364363 0.0366446 0.0368536 0.037063 0.0372723
0.0374817 0.0376916 0.0379021 0.0381131 0.038324 0.0385348 0.0387463 0.0389583 0.0391706 0.0393829
0.039595 0.0398077 0.0400208 0.0402342 0.0404474 0.0406605 0.0408739 0.0410877 0.0413015 0.0415151
0.0417286 0.0419421 0.0421556 0.042369 0.0425821 0.0427949 0.0430074 0.0432194 0.0434311 0.0436424
0.0438534 0.0440634 0.0442726 0.0444812 0.0446895 0.0448973 0.0451047 0.0453119 0.0455185 0.0457238
0.0459276 0.046131 0.0463341 0.0465368 0.0467377 0.0469366 0.0471351 0.0473333 0.0475312 0.0477273
0.0479209 0.0481142 0.0483073 0.0485003 0.0486919 0.0488803 0.0490688 0.0492571 0.0494455 0.0496334
0.0498177 0.0500022 0.0501868 0.0503715 0.0505564 0.0507381 0.05092 0.0511021 0.0512844 0.0514669
0.0516474 0.0518281 0.052009 0.05219 0.0523712 0.0525518 0.0527324 0.052913 0.0530938 0.0532746
0.0534555 0.0536365 0.0538174 0.0539984 0.0541794 0.0543608 0.0545421 0.0547234 0.0549048 0.0550861
0.0552678 0.0554495 0.0556311 0.0558128 0.0559945 0.0561765 0.0563585 0.0565405 0.0567224 0.0569044
0.0570867 0.057269 0.0574512 0.0576335 0.0578158 0.0579983 0.0581809 0.0583634 0.0585459 0.0587285
0.0589113 0.0590941 0.0592769 0.0594598 0.0596426 0.0598257 0.0600088 0.0601919 0.060375 0.0605581
0.0607416 0.060925 0.0611084 0.0612918 0.0614752 0.0616589 0.0618426 0.0620263 0.06221 0.0623937
0.0625777 0.0627616 0.0629456 0.0631296 0.0633136 0.0634978 0.0636821 0.0638663 0.0640506 0.0642348
0.0644193 0.0646038 0.0647883 0.0649728 0.0651573 0.065342 0.0655268 0.0657115 0.0658962 0.0660809
0.0662659 0.0664508 0.0666357 0.0668207 0.0670056 0.0671907 0.067376 0.0675613 0.0677466 0.0679319
0.0681172 0.0683026 0.068488 0.0686735 0.0688589 0.0690444 0.0692299 0.0694155 0.0696011 0.0697866
0.0699722 0.0701579 0.0703436 0.0705293 0.070715 0.0709007 0.0710865 0.0712723 0.0714581 0.0716439
0.0718297 0.0720155 0.0722014 0.0723873 0.0725732 0.0727591 0.072945 0.073131 0.0733169 0.0735029
0.0736888 0.0738748 0.0740608 0.0742468 0.0744328 0.0746188 0.0748049 0.0749909 0.0751769 0.0753629
0.075549 0.075735 0.0759211 0.0761071 0.0762931 0.0764792 0.0766652 0.0768512 0.0770372 0.0772233
0.0774093 0.0775953 0.0777813 0.0779673 0.0781533 0.0783393 0.0785252 0.0787112 0.0788972 0.0790831
0.0792691 0.079455 0.0796409 0.0798268 0.0800127 0.0801987 0.0803846 0.0805705 0.0807564 0.0809423
0.0811282 0.081314 0.0814999 0.0816858 0.0818717 0.0820576 0.0822435 0.0824294 0.0826153 0.0828012
0.0829871 0.0831731 0.0833591 0.083545 0.083731 0.083917 0.084103 0.084289 0.084475 0.0846611
0.0848471 0.0850332 0.0852192 0.0854053 0.0855914 0.0856285 0.0856657 0.0857028 0.08574 0.0857646
0.0859161 0.0860676 0.0862191 0.0863706 0.0865221 0.0867083 0.0868945 0.0870807 0.0872669 0.0874531
0.0876393 0.0878255 0.0880118 0.088198 0.0883843 0.0885705 0.0887568 0.0889431 0.0891294 0.0893157
0.089502 0.0896884 0.0898747 0.090061 0.0902474 0.0904337 0.0906201 0.0908065 0.0909929 0.0911792
0.0913656 0.091552 0.0917385 0.0919249 0.0921113 0.0922977 0.0924842 0.0926706 0.0928571 0.0930435
0.09323 0.0934164 0.0936029 0.0937894 0.0939759 0.0941624 0.0943489 0.0945354 0.0947219 0.0949084
0.0950949 0.0952815 0.095468 0.0956546 0.0958411 0.0960277 0.0962143 0.0964009 0.0965874 0.096774
0.0969606 0.0971473 0.0973339 0.0975205 0.0977072 0.0978938 0.0980805 0.0982672 0.0984539 0.0986406
0.0988273 0.0990141 0.0992009 0.0993876 0.0995744 0.0997612 0.099948 0.100135 0.100322 0.100508
0.100695 0.100882 0.101069 0.101256 0.101443 0.101629 0.101816 0.102003 0.10219 0.102377
0.102564 0.102751 0.102938 0.103125 0.103313 0.1035 0.103687 0.103874 0.104062 0.104249
0.104437 0.104624 0.104812 0.105 0.105188 0.105375 0.105564 0.105752 0.10594 0.106128
0.106316 0.106505 0.106694 0.106883 0.107071 0.10726 0.107449 0.107638 0.107828 0.108017
0.108206 0.108396 0.108585 0.108775 0.108965 0.109154 0.109345 0.109535 0.109725 0.109915
0.110105 0.110295 0.110486 0.110676 0.110866 0.111057 0.111247 0.111438 0.111628 0.111819
0.112009 0.1122 0.112391 0.112582 0.112772 0.112963 0.113154 0.113344 0.113535 0.113726
0.113916 0.114107 0.114298 0.114489 0.11468 0.11487 0.115061 0.115252 0.115443 0.115633
0.115824 0.116015 0.116206 0.116396 0.116587 0.116777 0.116968 0.117159 0.11735 0.11754
0.117731 0.117921 0.118112 0.118303 0.118493 0.118684 0.118875 0.119065 0.119256 0.119446
0.119637 0.119827 0.120018 0.120208 0.120399 0.120589 0.12078 0.12097 0.121161 0.121351
0.121542 0.121732 0.121923 0.122113 0.122303 0.122494 0.122684 0.122875 0.123065 0.123255
0.123445 0.123636 0.123826 0.124017 0.124207 0.124397 0.124587 0.124778 0.124968 0.125158
0.125348 0.125539 0.125729 0.125919 0.12611 0.126299 0.12649 0.12668 0.12687 0.12706
0.12725 0.12744 0.127631 0.127821 0.128011 0.128201 0.128391 0.128581 0.128771 0.128961
0.129151 0.129341 0.129531 0.129721 0.129911 0.130101 0.130291 0.130481 0.130671 0.130861
0.131051 0.131241 0.131431 0.131621 0.131811 0.132 0.13219 0.13238 0.13257 0.13276
0.13295 0.13314 0.13333 0.133519 0.133709 0.133899 0.134089 0.134278 0.134468 0.134658
0.134847 0.135037 0.135227 0.135417 0.135607 0.135796 0.135986 0.136176 0.136365 0.136555
0.136744 0.136934 0.137124 0.137314 0.137503 0.137692 0.137882 0.138072 0.138262 0.138451
0.13864 0.13883 0.13902 0.139209 0.139399 0.139588 0.139778 0.139967 0.140157 0.140347
0.140536 0.140725 0.140915 0.141105 0.141294 0.141483 0.141673 0.141862 0.142052 0.142241
0.14243 0.14262 0.142809 0.142999 0.143189 0.143377 0.143567 0.143756 0.143946 0.144135
0.144324 0.144513 0.144703 0.144892 0.145082 0.14527 0.14546 0.145649 0.145838 0.146028
0.146216 0.146405 0.146595 0.146784 0.146973 0.147161 0.147351 0.14754 0.147729 0.147918
0.148106 0.148295 0.148484 0.148673 0.148862 0.149051 0.14924 0.149429 0.149618 0.149807
0.149995 0.150184 0.150372 0.150561 0.15075 0.150938 0.151127 0.151316 0.151505 0.151693
0.15207 0.152446 0.152823 0.153199 0.153575 0.154326 0.155078 0.155829 0.156579 0.15733
0.158831 0.160332 0.161832 0.163333 0.164833 0.166333 0.167834 0.169334 0.170834 0.172334
0.175334 0.178335 0.181335 0.184335 0.187335 0.193335 0.199335 0.205335 0.211336 0.217336
0.223336 0.229336 0.235336 0.241336 0.247336 0.253336 0.259336 0.265336 0.271336 0.277336
0.283336 0.289336 0.295336 0.301336 0.307336 0.313336 0.319336 0.325336 0.331336 0.337336
0.343336 0.349337 0.355337 0.361337 0.367337 0.373337 0.379337 0.385337 0.391337 0.397337
0.403337 0.403385 0 7.369e-05 0.000147384 0.000221082 0.000294784 0.00036849 0.00046154 0.000554598
0.000647664 0.000740738 0.000830506 0.000928792 0.00102709 0.00112539 0.0012237 0.00132202 0.00151283 0.00170366
0.00189453 0.00208544 0.00227638 0.00246736 0.00265837 0.00284943 0.00304052 0.00323165 0.00342281 0.00361402
0.00380527 0.00399656 0.00418789 0.00437926 0.00457067 0.00476213 0.00495363 0.00514517 0.00533676 0.00552839
0.00572008 0.0059118 0.00610358 0.0062954 0.00648727 0.00667919 0.00687116 0.00706318 0.00725525 0.00744738
0.00763955 0.00783179 0.00802407 0.00821641 0.00840881 0.00860127 0.00879378 0.00898635 0.00917898 0.00937167
0.00956443 0.00975724 0.00995012 0.0101431 0.0103361 0.0105291 0.0107223 0.0109155 0.0111088 0.0113021
0.0114955 0.011689 0.0118826 0.0120763 0.01227 0.0124638 0.0126576 0.0128516 0.0130456 0.0132397
0.0134339 0.0136282 0.0138226 0.0140171 0.0142116 0.0144063 0.014601 0.0147958 0.0149907 0.0151858
0.0153809 0.0155761 0.0157714 0.0159668 0.0161623 0.016358 0.0165537 0.0167496 0.0169455 0.0171416
0.0173378 0.0175341 0.0177306 0.0179271 0.0181238 0.0183206 0.0185176 0.0187146 0.0189118 0.0191092
0.0193067 0.0195043 0.019702 0.0198999 0.020098 0.0202962 0.0204946 0.0206931 0.0208918 0.0210906
0.0212897 0.0214889 0.0216882 0.0218877 0.0220875 0.0222874 0.0224874 0.0226877 0.0228882 0.0230889
0.0232897 0.0234908 0.0236921 0.0238936 0.0240953 0.0242972 0.0244994 0.0247018 0.0249044 0.0251073
0.0253104 0.0255138 0.0257174 0.0259213 0.0261255 0.0263299 0.0265346 0.0267396 0.0269449 0.0271505
0.0273564 0.0275626 0.0277691 0.0279759 0.0281831 0.0283906 0.0285985 0.0288067 0.0290152 0.0292242
0.0294335 0.0296432 0.0298533 0.0300638 0.0302747 0.030486 0.0306978 0.03091 0.0311226 0.0313358
0.0315494 0.0317634 0.031978 0.0321931 0.0324087 0.0326248 0.0328415 0.0330588 0.0332765 0.0334949
0.0337139 0.0339335 0.0341538 0.0343746 0.0345961 0.0348184 0.0350413 0.0352649 0.0354892 0.0357143
0.0359401 0.0361668 0.0363942 0.0366224 0.0368515 0.0370814 0.0373123 0.037544 0.0377766 0.0380102
0.0382447 0.0384802 0.0387167 0.0389543 0.0391929 0.0394326 0.0396735 0.0399154 0.0401585 0.0404026
0.040648 0.0408945 0.0411424 0.0413914 0.0416418 0.0418934 0.0421464 0.0424008 0.0426563 0.0429129
0.0431708 0.04343 0.0436908 0.0439529 0.0442161 0.0444805 0.0447459 0.0450133 0.0452812 0.0455496
0.0458185 0.046088 0.0463599 0.0464885 0.0466171 0.0467455 0.0468739 0.0469541 0.047107 0.0472596
0.0474121 0.0475645 0.0477178 0.0479887 0.0482579 0.0485252 0.0487906 0.0490591 0.0492057 0.0493511
0.0494954 0.0496385 0.0497488 0.0498689 0.0499882 0.0501068 0.0502246 0.0503426 0.0505901 0.0508324
0.0510698 0.0513025 0.0515317 0.0515474 0.051563 0.0515786 0.0515941 0.0516097 0.0518162 0.0520181
0.0522156 0.052409 0.0525962 0.0527077 0.0528175 0.0529256 0.0530324 0.0531665 0.0532408 0.0533145
0.0533875 0.0534598 0.053531 0.0537055 0.0538763 0.0540436 0.0542077 0.0543654 0.054504 0.054641
0.0547766 0.0549106 0.0551319 0.0551467 0.0551614 0.0551762 0.055191 0.0552078 0.0553393 0.0554701
0.0556005 0.0557302 0.0558587 0.0560018 0.0561449 0.0562882 0.0564316 0.0565749 0.0567183 0.056862
0.057006 0.0571504 0.0572952 0.0574403 0.0575858 0.0577317 0.0578779 0.0580245 0.0581714 0.0583186
0.0584661 0.058614 0.0587622 0.0589107 0.0590595 0.0592087 0.0593581 0.0595078 0.0596579 0.0598082
0.0599589 0.0601098 0.0602611 0.0604126 0.0605644 0.0607166 0.0608691 0.0610219 0.0611749 0.0613283
0.0614821 0.0616361 0.0617905 0.0619452 0.0621003 0.0622557 0.0624114 0.0625675 0.0627239 0.0628807
0.0630378 0.0631953 0.0633531 0.0635113 0.0636698 0.0638287 0.0639879 0.0641475 0.0643074 0.0644677
0.0646283 0.0647892 0.0649504 0.065112 0.065274 0.0654362 0.0655988 0.0657617 0.0659249 0.0660884
0.0662522 0.0664163 0.0665807 0.0667455 0.0669105 0.0670758 0.0672413 0.0674072 0.0675733 0.0677397
0.0679064 0.0680733 0.0682404 0.0684079 0.0685755 0.0687434 0.0689116 0.06908 0.0692486 0.0694174
0.0695864 0.0697557 0.0699252 0.0700949 0.0702647 0.0704348 0.0706051 0.0707756 0.0709463 0.0711171
0.0712881 0.0714593 0.0716306 0.0718022 0.0719739 0.0721458 0.0723178 0.07249 0.0726623 0.0728347
0.0730073 0.07318 0.0733529 0.0735259 0.073699 0.0738723 0.0740456 0.0742191 0.0743926 0.0745663
0.07474 0.0749138 0.0750877 0.0752617 0.0754358 0.0756099 0.0757841 0.0759584 0.0761327 0.076307
0.0764813 0.0766557 0.0768301 0.0770045 0.0771789 0.0773533 0.0775278 0.0777022 0.0778766 0.0780509
0.0782252 0.0783995 0.0785738 0.078748 0.0789222 0.0790964 0.0792705 0.0794445 0.0796185 0.0797925
0.0799664 0.0801402 0.080314 0.0804878 0.0806615 0.0808352 0.0810089 0.0811826 0.0813562 0.0815298
0.0817034 0.081877 0.0820507 0.0822243 0.082398 0.0825717 0.0827455 0.0829193 0.0830931 0.083267
0.083441 0.0836151 0.0837892 0.0839634 0.0841377 0.0843121 0.0844865 0.0846611 0.0848357 0.0850105
0.0851854 0.0853603 0.0855354 0.0855547 0.0855739 0.0855932 0.0856125 0.0856312 0.0857873 0.0859434
0.0860996 0.0862559 0.0864123 0.086588 0.0867638 0.0869397 0.0871157 0.0872918 0.0874681 0.0876444
0.0878208 0.0879973 0.0881739 0.0883506 0.0885274 0.0887043 0.0888813 0.0890584 0.0892356 0.0894129
0.0895902 0.0897677 0.0899452 0.0901228 0.0903005 0.0904782 0.0906561 0.090834 0.091012 0.0911901
0.0913682 0.0915465 0.0917248 0.0919031 0.0920816 0.0922601 0.0924387 0.0926173 0.0927961 0.0929749
0.0931538 0.0933327 0.0935117 0.0936908 0.09387 0.0940492 0.0942286 0.0944079 0.0945874 0.0947669
0.0949465 0.0951262 0.095306 0.0954858 0.0956657 0.0958457 0.0960258 0.096206 0.0963862 0.0965666
0.096747 0.0969276 0.0971082 0.0972891 0.09747 0.0976511 0.0978324 0.0980138 0.0981958 0.0983779
0.0985602 0.0987427 0.0989253 0.0991072 0.0992891 0.0994712 0.0996532 0.0998354 0.100018 0.1002
0.100383 0.100565 0.100748 0.100931 0.101114 0.101297 0.10148 0.101663 0.101847 0.102031
0.102215 0.1024 0.102585 0.10277 0.102956 0.103143 0.10333 0.103518 0.103707 0.103896
0.104086 0.104277 0.104469 0.104662 0.104856 0.105051 0.105247 0.105444 0.105642 0.105842
0.106043 0.106245 0.106449 0.106654 0.10686 0.107069 0.107278 0.107489 0.107702 0.107916
0.108132 0.10835 0.108569 0.10879 0.109013 0.109238 0.109464 0.109692 0.109922 0.110153
0.110387 0.110622 0.110859 0.111097 0.111338 0.111579 0.111823 0.112068 0.112315 0.112563
0.112813 0.113064 0.113317 0.113571 0.113827 0.114084 0.114342 0.114601 0.114862 0.115124
0.115387 0.115651 0.115916 0.116182 0.116449 0.116717 0.116985 0.117255 0.117525 0.117796
0.118068 0.11834 0.118613 0.118887 0.119161 0.119435 0.11971 0.119985 0.120261 0.120537
0.120813 0.12109 0.121367 0.121644 0.121921 0.122199 0.122477 0.122755 0.123032 0.12331
0.123588 0.123867 0.124145 0.124286 0.124427 0.124569 0.12471 0.124847 0.124984 0.125122
0.125259 0.125397 0.125534 0.125811 0.126089 0.126366 0.126644 0.126921 0.127197 0.127474
0.12775 0.128026 0.128302 0.128577 0.128852 0.129128 0.129402 0.129677 0.12995 0.130224
0.130497 0.13077 0.131043 0.131315 0.131587 0.131859 0.132131 0.132402 0.132672 0.132943
0.133213 0.133483 0.133753 0.134022 0.134291 0.13456 0.134829 0.135098 0.135364 0.135633
0.1359 0.136168 0.136435 0.136701 0.136967 0.137234 0.1375 0.137767 0.138031 0.138296
0.138561 0.138825 0.139089 0.139352 0.139615 0.139878 0.140141 0.140403 0.140524 0.140644
0.140765 0.140885 0.141011 0.141151 0.14129 0.14143 0.14157 0.141709 0.14197 0.14223
0.14249 0.142749 0.143009 0.143267 0.143526 0.143784 0.144043 0.1443 0.144557 0.144815
0.145072 0.145329 0.145586 0.14584 0.146096 0.146352 0.146608 0.146863 0.147116 0.14737
0.147625 0.14788 0.148133 0.148384 0.148637 0.148891 0.149145 0.149397 0.149646 0.149897
0.15015 0.150402 0.150652 0.1509 0.151149 0.151401 0.151652 0.1519 0.152146 0.152395
0.152644 0.152894 0.153141 0.153386 0.153633 0.153881 0.154129 0.154375 0.154619 0.154864
0.155111 0.155358 0.155602 0.155845 0.156089 0.156334 0.156579 0.156822 0.157064 0.157307
0.15755 0.157794 0.158036 0.158276 0.158518 0.15876 0.159002 0.159243 0.159483 0.159724
0.159964 0.160205 0.160445 0.160683 0.160923 0.161162 0.161401 0.16164 0.161877 0.162116
0.162354 0.162591 0.162829 0.163065 0.163302 0.163539 0.163775 0.164012 0.164247 0.164483
0.164718 0.164953 0.165188 0.165423 0.165657 0.165892 0.166125 0.166359 0.166376 0.166394
0.166411 0.166429 0.166446 0.166894 0.167342 0.167787 0.168232 0.168649 0.169465 0.170279
0.171091 0.1719 0.172705 0.174239 0.175777 0.177311 0.178842 0.18037 0.181878 0.183393
0.184906 0.186418 0.187929 0.190937 0.193948 0.196958 0.199966 0.202982 0.208988 0.214994
0.221 0.227006 0.233011 0.239012 0.245016 0.251019 0.257023 0.263026 0.269026 0.275029
0.281032 0.287035 0.293037 0.299038 0.30504 0.311042 0.317044 0.323047 0.329047 0.335049
0.341051 0.347053 0.353054 0.359055 0.365056 0.371058 0.377059 0.383061 0.389061 0.395063
0.401064 0.407065 0.413066 0.419067 0.422224 0 7.36659e-05 0.000147337 0.000221012 0.000294692
0.000368376 0.000462694 0.00055702 0.000651354 0.000745696 0.000836497 0.000933506 0.00103052 0.00112755 0.00122458
0.00132163 0.00151237 0.00170314 0.00189395 0.0020848 0.00227568 0.00246659 0.00265754 0.00284853 0.00303955
0.00323061 0.00342171 0.00361285 0.00380403 0.00399524 0.0041865 0.0043778 0.00456914 0.00476052 0.00495194
0.00514341 0.00533492 0.00552647 0.00571807 0.00590972 0.00610141 0.00629314 0.00648493 0.00667676 0.00686864
0.00706057 0.00725255 0.00744458 0.00763666 0.0078288 0.00802099 0.00821323 0.00840553 0.00859788 0.00879029
0.00898275 0.00917528 0.00936786 0.0095605 0.0097532 0.00994597 0.0101388 0.0103317 0.0105246 0.0107177
0.0109107 0.0111039 0.0112971 0.0114904 0.0116838 0.0118772 0.0120707 0.0122643 0.0124579 0.0126517
0.0128455 0.0130393 0.0132333 0.0134274 0.0136215 0.0138157 0.01401 0.0142044 0.0143988 0.0145934
0.0147881 0.0149828 0.0151776 0.0153726 0.0155676 0.0157627 0.0159579 0.0161533 0.0163487 0.0165442
0.0167399 0.0169356 0.0171315 0.0173275 0.0175236 0.0177198 0.0179161 0.0181126 0.0183091 0.0185058
0.0187027 0.0188996 0.0190967 0.0192939 0.0194913 0.0196888 0.0198864 0.0200842 0.0202821 0.0204802
0.0206784 0.0208768 0.0210754 0.0212741 0.021473 0.021672 0.0218712 0.0220706 0.0222702 0.0224699
0.0226699 0.02287 0.0230703 0.0232708 0.0234715 0.0236724 0.0238736 0.0240749 0.0242765 0.0244782
0.0246803 0.0248825 0.025085 0.0252877 0.0254907 0.0256939 0.0258973 0.0261011 0.0263051 0.0265094
0.0267139 0.0269188 0.0271239 0.0273294 0.0275351 0.0277412 0.0279476 0.0281543 0.0283614 0.0285688
0.0287766 0.0289847 0.0291932 0.0294021 0.0296114 0.029821 0.0298639 0.0299069 0.0299498 0.0299928
0.0300347 0.0302024 0.0303704 0.0305387 0.0307073 0.0308762 0.0310885 0.0313013 0.0315145 0.0317283
0.0319427 0.0321575 0.0323729 0.0325889 0.0328054 0.0330226 0.0332403 0.0334587 0.0336778 0.0338975
0.0341179 0.034339 0.0345609 0.0347836 0.0350071 0.0352313 0.0354564 0.0356823 0.0359092 0.036137
0.0363657 0.0365954 0.0368262 0.0370581 0.0372911 0.0375252 0.0377604 0.0379969 0.0382347 0.0384739
0.0387144 0.0389563 0.0391998 0.039445 0.0396918 0.0399402 0.0401903 0.0404423 0.0406963 0.0409524
0.0412105 0.0414706 0.0417332 0.0419985 0.0422663 0.0425367 0.0428104 0.0430871 0.043367 0.0436502
0.043937 0.0442268 0.0445206 0.0448186 0.0451209 0.0454287 0.0457386 0.0460532 0.0463723 0.0466961
0.0470301 0.047191 0.0473532 0.0475166 0.047681 0.0477587 0.0479617 0.048166 0.0483715 0.0485782
0.0487931 0.0490958 0.0494007 0.0497073 0.0500129 0.050103 0.0502209 0.0503384 0.0504556 0.0505724
0.0506938 0.0508922 0.0510887 0.0512832 0.0514756 0.0515912 0.0517967 0.0519986 0.0521969 0.0523917
0.0525981 0.0526238 0.0526495 0.0526751 0.0527006 0.0527253 0.0529262 0.0531215 0.0533117 0.0534971