# vtk DataFile Version 2.0
tracks
ASCII
DATASET POLYDATA
POINTS 19351 float
-1.001 1e-07 0.0011 -0.99955 9.94276e-08 0.00110002 -0.9981 9.88582e-08 0.00110004 -0.99665 9.82917e-08
0.00110007 -0.9952 9.77281e-08 0.0011001 -0.99375 9.71674e-08 0.00110014 -0.99 9.57057e-08 0.00110023
-0.98625 9.42619e-08 0.00110033 -0.9825 9.28177e-08 0.00110043 -0.97875 9.13857e-08 0.00110054 -0.975
8.9978e-08 0.00110067 -0.97125 8.85779e-08 0.00110082 -0.9675 8.71942e-08 0.00110097 -0.96375 8.58101e-08
0.00110112 -0.96 8.44438e-08 0.00110127 -0.95625 8.31126e-08 0.00110144 -0.9525 8.18092e-08 0.0011016
-0.94875 8.0513e-08 0.00110177 -0.945 7.92163e-08 0.00110194 -0.94125 7.79386e-08 0.00110211 -0.9375
7.66982e-08 0.00110229 -0.93375 7.54804e-08 0.00110247 -0.93 7.42771e-08 0.00110264 -0.92625 7.30734e-08
0.00110282 -0.9225 7.18873e-08 0.001103 -0.91875 7.07357e-08 0.00110318 -0.915 6.96048e-08 0.00110336
-0.91125 6.84876e-08 0.00110355 -0.9075 6.73701e-08 0.00110373 -0.90375 6.627e-08 0.00110392 -0.9
6.52039e-08 0.00110411 -0.89625 6.41589e-08 0.0011043 -0.8925 6.31616e-08 0.0011045 -0.88875 6.21986e-08
0.0011047 -0.885 6.12532e-08 0.0011049 -0.88125 6.03075e-08 0.0011051 -0.8775 5.93568e-08 0.00110531
-0.87375 5.84445e-08 0.00110552 -0.87 5.75656e-08 0.00110573 -0.86625 5.6704e-08 0.00110594 -0.8625
5.5842e-08 0.00110616 -0.85875 5.49756e-08 0.00110638 -0.855 5.4145e-08 0.0011066 -0.85125 5.33455e-08
0.00110682 -0.8475 5.25622e-08 0.00110705 -0.84375 5.17786e-08 0.00110728 -0.84 5.09833e-08 0.00110751
-0.83625 5.02304e-08 0.00110775 -0.8325 4.95082e-08 0.00110799 -0.82875 4.88021e-08 0.00110823 -0.825
4.80956e-08 0.00110847 -0.82125 4.73855e-08 0.00110872 -0.8175 4.67106e-08 0.00110897 -0.81375 4.60671e-08
0.00110923 -0.81 4.54401e-08 0.00110949 -0.80625 4.48129e-08 0.00110975 -0.8025 4.41824e-08 0.00111001
-0.79875 4.35901e-08 0.00111028 -0.795 4.30327e-08 0.00111055 -0.79125 4.24937e-08 0.00111083 -0.7875
4.19545e-08 0.00111111 -0.78375 4.14045e-08 0.00111139 -0.78 4.09035e-08 0.00111168 -0.77625 4.04405e-08
0.00111197 -0.7725 3.99978e-08 0.00111227 -0.76875 3.95549e-08 0.00111257 -0.765 3.91014e-08 0.00111287
-0.76125 3.86948e-08 0.00111317 -0.7575 3.83241e-08 0.00111349 -0.75375 3.79729e-08 0.00111381 -0.75
3.76215e-08 0.00111413 -0.74625 3.72677e-08 0.00111445 -0.7425 3.6942e-08 0.00111478 -0.73875 3.66417e-08
0.00111512 -0.735 3.63552e-08 0.00111546 -0.73125 3.60685e-08 0.00111581 -0.7275 3.57797e-08 0.00111615
-0.72375 3.55108e-08 0.0011165 -0.72 3.52592e-08 0.00111687 -0.71625 3.50172e-08 0.00111724 -0.7125
3.47749e-08 0.00111761 -0.70875 3.45307e-08 0.00111798 -0.705 3.43058e-08 0.00111836 -0.70125 3.40977e-08
0.00111875 -0.6975 3.38988e-08 0.00111914 -0.69375 3.36998e-08 0.00111954 -0.69 3.34894e-08 0.00111994
-0.68625 3.33049e-08 0.00112035 -0.6825 3.31344e-08 0.00112077 -0.67875 3.29716e-08 0.00112119 -0.675
3.28087e-08 0.00112162 -0.67125 3.26341e-08 0.00112205 -0.6675 3.24878e-08 0.00112249 -0.66375 3.23575e-08
0.00112294 -0.66 3.22361e-08 0.0011234 -0.65625 3.21147e-08 0.00112386 -0.6525 3.19917e-08 0.00112431
-0.64875 3.1889e-08 0.00112479 -0.645 3.18041e-08 0.00112527 -0.64125 3.17295e-08 0.00112577 -0.6375
3.16547e-08 0.00112626 -0.63375 3.15669e-08 0.00112676 -0.63 3.1506e-08 0.00112726 -0.62625 3.1458e-08
0.00112779 -0.6225 3.14173e-08 0.00112832 -0.61875 3.13766e-08 0.00112885 -0.615 3.13221e-08 0.00112938
-0.61125 3.13006e-08 0.00112993 -0.6075 3.12974e-08 0.00113049 -0.60375 3.13048e-08 0.00113106 -0.6
3.13122e-08 0.00113163 -0.59625 3.13046e-08 0.0011322 -0.5925 3.13132e-08 0.00113277 -0.58875 3.13218e-08
0.00113334 -0.585 3.13483e-08 0.00113392 -0.58125 3.14053e-08 0.00113452 -0.5775 3.14922e-08 0.00113514
-0.57375 3.15814e-08 0.00113575 -0.57 3.16706e-08 0.00113636 -0.56625 3.17823e-08 0.00113699 -0.5625
3.19317e-08 0.00113763 -0.55875 3.21185e-08 0.00113829 -0.555 3.23076e-08 0.00113895 -0.55125 3.24971e-08
0.00113961 -0.5475 3.27116e-08 0.00114028 -0.54375 3.2968e-08 0.00114097 -0.54 3.32461e-08 0.00114167
-0.53625 3.35467e-08 0.00114238 -0.5325 3.38478e-08 0.00114309 -0.52875 3.41759e-08 0.00114381 -0.525
3.45486e-08 0.00114454 -0.52125 3.49657e-08 0.0011453 -0.5175 3.53858e-08 0.00114606 -0.51375 3.58065e-08
0.00114682 -0.51 3.62572e-08 0.00114758 -0.50625 3.67562e-08 0.00114837 -0.5025 3.73039e-08 0.00114918
-0.49875 3.78551e-08 0.00114999 -0.495 3.84071e-08 0.00115079 -0.49125 3.89971e-08 0.00115161 -0.4875
3.96476e-08 0.00115245 -0.48375 4.03263e-08 0.00115331 -0.48 4.1042e-08 0.00115417 -0.47625 4.17589e-08
0.00115503 -0.4725 4.25297e-08 0.0011559 -0.46875 4.3385e-08 0.00115678 -0.465 4.42857e-08 0.00115769
-0.46125 4.52317e-08 0.0011586 -0.4575 4.61794e-08 0.0011595 -0.45375 4.72002e-08 0.00116042 -0.45
4.83338e-08 0.00116135 -0.44625 4.9532e-08 0.0011623 -0.4425 5.07866e-08 0.00116325 -0.43875 5.20437e-08
0.0011642 -0.435 5.33785e-08 0.00116516 -0.43125 5.48311e-08 0.00116613 -0.4275 5.64044e-08 0.00116712
-0.42375 5.79856e-08 0.0011681 -0.42 5.95701e-08 0.00116908 -0.41625 6.12329e-08 0.00117007 -0.4125
6.30121e-08 0.00117107 -0.40875 6.49119e-08 0.00117207 -0.405 6.68215e-08 0.00117308 -0.40125 6.87354e-08
0.00117408 -0.3975 7.07535e-08 0.00117508 -0.39375 7.29241e-08 0.00117608 -0.39 7.51453e-08 0.00117708
-0.38625 7.74868e-08 0.00117808 -0.3825 7.98341e-08 0.00117908 -0.37875 8.23227e-08 0.00118007 -0.375
8.50147e-08 0.00118104 -0.37125 8.77766e-08 0.001182 -0.3675 9.06969e-08 0.00118296 -0.36375 9.36248e-08
0.00118391 -0.36 9.67261e-08 0.00118485 -0.35625 1.00073e-07 0.00118574 -0.3525 1.0368e-07 0.0011866
-0.34875 1.07306e-07 0.00118746 -0.345 1.10942e-07 0.00118832 -0.34125 1.14791e-07 0.00118913 -0.3375
1.18936e-07 0.00118988 -0.33375 1.2314e-07 0.00119057 -0.33 1.27626e-07 0.00119125 -0.32625 1.32124e-07
0.00119194 -0.3225 1.36879e-07 0.00119255 -0.31875 1.41988e-07 0.00119306 -0.315 1.47126e-07 0.00119346
-0.31125 1.52646e-07 0.00119387 -0.3075 1.58183e-07 0.00119428 -0.30375 1.64062e-07 0.00119457 -0.3
1.70413e-07 0.0011947 -0.29625 1.76794e-07 0.00119468 -0.2925 1.84203e-07 0.00119442 -0.28875 1.92145e-07
0.00119393 -0.285 2.00481e-07 0.00119328 -0.28125 2.08836e-07 0.00119262 -0.2775 2.17264e-07 0.00119196
-0.27375 2.2634e-07 0.00119097 -0.27 2.36044e-07 0.00118965 -0.26625 2.46204e-07 0.00118808 -0.2625
2.56384e-07 0.00118652 -0.25875 2.66659e-07 0.00118496 -0.255 2.77764e-07 0.00118293 -0.25125 2.89672e-07
0.00118041 -0.2475 3.02144e-07 0.00117756 -0.24375 3.14631e-07 0.00117473 -0.24 3.25945e-07 0.00117189
-0.23625 3.39572e-07 0.00116843 -0.2325 3.54185e-07 0.00116435 -0.22875 3.69451e-07 0.00115985 -0.225
3.8472e-07 0.00115537 -0.22125 4.0014e-07 0.00115091 -0.2175 4.1708e-07 0.0011456 -0.21375 4.35511e-07
0.00113943 -0.21 4.54836e-07 0.00113276 -0.20625 4.74135e-07 0.00112614 -0.2025 4.93633e-07 0.00111956
-0.19875 5.15018e-07 0.00111178 -0.195 5.38168e-07 0.00110281 -0.19125 5.62206e-07 0.00109326 -0.1875
5.86163e-07 0.0010838 -0.18375 6.0687e-07 0.00107443 -0.18 6.32929e-07 0.00106355 -0.17625 6.60925e-07
0.00105117 -0.1725 6.89612e-07 0.00103828 -0.16875 7.18114e-07 0.00102557 -0.165 7.42303e-07 0.00101303
-0.16125 7.73274e-07 0.000998727 -0.1575 8.06519e-07 0.000982689 -0.15375 8.40125e-07 0.00096641 -0.15
8.73403e-07 0.000950431 -0.14625 9.0099e-07 0.000934744 -0.1425 9.37961e-07 0.000917069 -0.13875 9.7849e-07
0.000897468 -0.135 1.01882e-06 0.000878123 -0.13125 1.0586e-06 0.00085923 -0.1275 1.09833e-06 0.000840778
-0.12375 1.14133e-06 0.00082027 -0.12 1.18707e-06 0.000798105 -0.11625 1.232e-06 0.000776577 -0.1125
1.27617e-06 0.000755664 -0.10875 1.32009e-06 0.000735346 -0.105 1.36978e-06 0.000713009 -0.10125 1.42279e-06
0.000689703 -0.0975 1.47466e-06 0.000667183 -0.0937499 1.52545e-06 0.000645423 -0.0899999 1.5649e-06 0.000624391
-0.0862499 1.61773e-06 0.000601825 -0.0824999 1.67096e-06 0.000579182 -0.0787499 1.72293e-06 0.000557397 -0.0749999
1.77372e-06 0.000536435 -0.0712499 1.81145e-06 0.000516261 -0.0674999 1.86018e-06 0.000495974 -0.0637499 1.90787e-06
0.000476323 -0.0599999 1.9545e-06 0.000457438 -0.0562499 2.0001e-06 0.000439291 -0.0524999 2.04487e-06 0.000421847
-0.0487498 2.09418e-06 0.000406736 -0.0449998 2.14254e-06 0.000392149 -0.0412498 2.18998e-06 0.00037807 -0.0374998
2.23653e-06 0.000364481 -0.0337498 2.26839e-06 0.000351362 -0.0299998 2.31985e-06 0.000342651 -0.0262498 2.37071e-06
0.000334148 -0.0224998 2.42099e-06 0.000325847 -0.0187499 2.4707e-06 0.000317745 -0.0149999 2.50543e-06 0.000309837
-0.0112499 2.5549e-06 0.000306296 -0.0074999 2.60425e-06 0.000302794 -0.00374991 2.65348e-06 0.000299331 6.11907e-08
2.70258e-06 0.000295905 0.00375005 2.75085e-06 0.000292518 0.00750005 2.79761e-06 0.000289173 0.01125 2.84422e-06
0.000285865 0.015 2.89068e-06 0.000282593 0.01875 2.93699e-06 0.000279358 0.0225 2.98228e-06 0.000278249
0.02625 3.02642e-06 0.000277147 0.03 3.07062e-06 0.000276049 0.03375 3.11488e-06 0.000274955 0.0375
3.1592e-06 0.000273865 0.04125 3.2063e-06 0.000273335 0.045 3.25203e-06 0.000272808 0.04875 3.29786e-06
0.000272281 0.0525 3.34379e-06 0.000271756 0.05625 3.38982e-06 0.000271231 0.06 3.42952e-06 0.000271002
0.06375 3.47964e-06 0.000270774 0.0675 3.52988e-06 0.000270546 0.07125 3.58025e-06 0.000270318 0.075
3.63073e-06 0.000270091 0.07875 3.68638e-06 0.000270012 0.0825 3.74098e-06 0.000269933 0.08625 3.79572e-06
0.000269854 0.09 3.8506e-06 0.000269775 0.09375 3.90561e-06 0.000269697 0.0975 3.96352e-06 0.000269669
0.10125 4.02065e-06 0.000269643 0.105 4.07792e-06 0.000269616 0.10875 4.13533e-06 0.00026959 0.1125
4.19289e-06 0.000269563 0.11625 4.2364e-06 0.00026955 0.12 4.29097e-06 0.000269537 0.12375 4.34567e-06
0.000269524 0.1275 4.40052e-06 0.000269512 0.13125 4.45551e-06 0.000269499 0.135 4.48741e-06 0.000269484
0.13875 4.53132e-06 0.000269469 0.1425 4.57535e-06 0.000269454 0.14625 4.6195e-06 0.00026944 0.15
4.66376e-06 0.000269425 0.15375 4.67388e-06 0.000269397 0.1575 4.69655e-06 0.000269369 0.16125 4.71929e-06
0.000269341 0.165 4.74208e-06 0.000269313 0.16875 4.76494e-06 0.000269285 0.1725 4.75646e-06 0.000269238
[...]
POINT_DATA 19351
FIELD attributes 3
age 1 19351 float
0 7.30194e-05 0.000146042 0.000219069 0.0002921 0.000365134 0.000554025 0.000742916 0.000931807 0.00112072 0.00130966
0.00149863 0.0016876 0.00187657 0.00206557 0.00225459 0.00244365 0.00263271 0.00282177 0.00301085 0.00319997
0.00338912 0.00357827 0.00376743 0.0039566 0.00414582 0.00433507 0.00452433 0.00471358 0.00490286 0.00509218
0.00528154 0.00547095 0.0056604 0.00584988 0.00603935 0.00622883 0.00641836 0.00660793 0.00679753 0.00698713
0.00717673 0.00736638 0.00755609 0.00774582 0.00793556 0.00812529 0.00831508 0.00850493 0.0086948 0.00888468
0.00907455 0.00926449 0.00945449 0.00964452 0.00983455 0.0100246 0.0102147 0.0104048 0.010595 0.0107852
0.0109754 0.0111657 0.011356 0.0115464 0.0117368 0.0119271 0.0121176 0.0123081 0.0124987 0.0126893
0.0128798 0.0130705 0.0132612 0.013452 0.0136428 0.0138335 0.0140244 0.0142154 0.0144064 0.0145974
0.0147884 0.0149795 0.0151707 0.0153619 0.0155532 0.0157444 0.0159358 0.0161273 0.0163188 0.0165103
0.0167018 0.0168935 0.0170852 0.017277 0.0174688 0.0176607 0.0178526 0.0180446 0.0182368 0.0184289
0.018621 0.0188133 0.0190057 0.0191982 0.0193907 0.0195832 0.0197758 0.0199686 0.0201614 0.0203543
0.0205472 0.02074 0.0209329 0.0211259 0.021319 0.0215123 0.0217056 0.0218988 0.0220922 0.0222858
0.0224795 0.0226733 0.022867 0.0230609 0.023255 0.0234492 0.0236435 0.0238377 0.0240321 0.0242267
0.0244215 0.0246163 0.0248111 0.0250061 0.0252012 0.0253967 0.0255921 0.0257875 0.0259831 0.0261789
0.026375 0.0265711 0.0267672 0.0269635 0.02716 0.0273569 0.0275537 0.0277506 0.0279476 0.028145
0.0283426 0.0285403 0.028738 0.0289359 0.0291341 0.0293327 0.0295313 0.0297298 0.0299287 0.0301279
0.0303275 0.030527 0.0307266 0.0309265 0.0311268 0.0313275 0.0315282 0.0317289 0.0319299 0.0321313
0.0323332 0.0325351 0.0327371 0.0329393 0.0331421 0.0333453 0.0335485 0.0337518 0.0339554 0.0341595
0.0343642 0.0345689 0.0347735 0.0349786 0.0351842 0.0353904 0.0355966 0.0358028 0.0360094 0.0362167
0.0364244 0.0366328 0.0368418 0.0370512 0.0372606 0.03747 0.03768 0.0378906 0.0381016 0.0383125
0.0385234 0.0387349 0.0389469 0.0391593 0.0393716 0.0395838 0.0397965 0.0400096 0.040223 0.0404363
0.0406494 0.0408629 0.0410767 0.0412905 0.0415042 0.0417177 0.0419313 0.0421448 0.0423583 0.0425714
0.0427843 0.0429968 0.0432089 0.0434206 0.043632 0.043843 0.0440532 0.0442624 0.0444711 0.0446794
0.0448873 0.0450937 0.0452987 0.0455031 0.0457071 0.0459107 0.0461122 0.0463118 0.046511 0.0467099
0.0469085 0.0471042 0.0472982 0.0474919 0.0476854 0.0478787 0.0480687 0.0482572 0.0484458 0.0486343
0.0488228 0.0490076 0.0491919 0.0493763 0.0495608 0.0497455 0.0499268 0.0501083 0.05029 0.0504719
0.050654 0.050834 0.0510141 0.0511945 0.051375 0.0515557 0.0517356 0.0519157 0.0520958 0.052276
0.0524563 0.0526366 0.0528171 0.0529976 0.0531782 0.0533589 0.0535396 0.0537203 0.0539011 0.0540819
0.054263 0.0544441 0.0546252 0.0548063 0.0549874 0.0551689 0.0553503 0.0555318 0.0557132 0.0558947
0.0560765 0.0562583 0.05644 0.0566218 0.0568036 0.0569857 0.0571677 0.0573498 0.0575319 0.0577139
0.0578963 0.0580786 0.058261 0.0584434 0.0586257 0.0588084 0.058991 0.0591737 0.0593563 0.0595389
0.0597219 0.0599049 0.0600878 0.0602707 0.0604537 0.060637 0.0608202 0.0610035 0.0611867 0.06137
0.0615535 0.0617371 0.0619206 0.0621042 0.0622878 0.0624716 0.0626554 0.0628393 0.0630231 0.063207
0.0633911 0.0635752 0.0637593 0.0639434 0.0641276 0.0643119 0.0644963 0.0646807 0.064865 0.0650494
0.065234 0.0654186 0.0656032 0.0657878 0.0659724 0.0661382 0.0663039 0.0664696 0.0666354 0.066804
0.0668225 0.066841 0.0668595 0.066878 0.0668965 0.0670815 0.0672667 0.0674518 0.067637 0.0678221
0.0680073 0.0681926 0.0683779 0.0685632 0.0687485 0.0689339 0.0691193 0.0693047 0.0694902 0.0696756
0.0698611 0.0700466 0.0702322 0.0704177 0.0706033 0.0707889 0.0709745 0.0711602 0.0713458 0.0715315
0.0717172 0.0719029 0.0720886 0.0722744 0.0724601 0.0726459 0.0728317 0.0730174 0.0732032 0.073389
0.0735749 0.0737607 0.0739465 0.0741324 0.0743182 0.0745041 0.0746899 0.0748758 0.0750616 0.0752475
0.0754334 0.0756192 0.0758051 0.0759909 0.0761768 0.0763626 0.0765485 0.0767343 0.0769201 0.077106
0.0772918 0.0774776 0.0776634 0.0778492 0.078035 0.0782208 0.0784065 0.0785923 0.078778 0.0789637
0.0791495 0.0793352 0.0795209 0.0797066 0.0798923 0.0800781 0.0802638 0.0804494 0.0806351 0.0808208
0.0810065 0.0811922 0.0813779 0.0815636 0.0817493 0.081935 0.0821207 0.0823064 0.0824921 0.0826778
0.0828636 0.0830493 0.083235 0.0834208 0.0836065 0.0837923 0.0839781 0.0841639 0.0843497 0.0845354
0.0847213 0.0849072 0.085093 0.0852789 0.0854647 0.0856507 0.0858366 0.0860225 0.0862084 0.0863943
0.0865803 0.0867663 0.0869523 0.0871383 0.0873242 0.0875103 0.0876963 0.0878824 0.0880684 0.0882545
0.0884406 0.0886267 0.0888128 0.0889989 0.089185 0.0893711 0.0895573 0.0897434 0.0899296 0.0901157
0.090302 0.0904882 0.0906744 0.0908606 0.0910468 0.091233 0.0914193 0.0916055 0.0917917 0.091978
0.0921643 0.0923506 0.0925369 0.0927232 0.0929095 0.0930958 0.0932821 0.0934685 0.0936548 0.0938412
0.0940276 0.0942139 0.0944003 0.0945867 0.0947731 0.0949596 0.095146 0.0953325 0.0955189 0.0957054
0.0958919 0.0960784 0.0962649 0.0964514 0.0966379 0.0968245 0.0970112 0.0971979 0.0973845 0.0975712
0.0977579 0.0979446 0.0981313 0.0983181 0.0985048 0.0986916 0.0988783 0.0990651 0.0992518 0.0994385
0.0996253 0.0998119 0.0999985 0.100185 0.100372 0.100558 0.100745 0.100931 0.101118 0.101304
0.101476 0.101647 0.101818 0.10199 0.102182 0.102192 0.102203 0.102214 0.102224 0.102235
0.102421 0.102607 0.102793 0.102979 0.103165 0.103352 0.103538 0.103724 0.10391 0.104096
0.104282 0.104468 0.104655 0.104841 0.105027 0.105214 0.1054 0.105587 0.105774 0.10596
0.106147 0.106334 0.106521 0.106708 0.106895 0.107082 0.10727 0.107458 0.107646 0.107834
0.108021 0.10821 0.108399 0.108587 0.108776 0.108965 0.109154 0.109344 0.109534 0.109723
0.109913 0.110104 0.110295 0.110485 0.110676 0.110867 0.111059 0.111251 0.111442 0.111634
0.111826 0.112018 0.11221 0.112402 0.112594 0.112786 0.112979 0.113172 0.113365 0.113558
0.113751 0.113944 0.114138 0.114331 0.114524 0.114718 0.114912 0.115106 0.1153 0.115493
0.115687 0.115881 0.116076 0.11627 0.116464 0.116658 0.116852 0.117046 0.11724 0.117435
0.117629 0.117823 0.118017 0.118211 0.118406 0.1186 0.118794 0.118988 0.119182 0.119376
0.11957 0.119764 0.119958 0.120152 0.120346 0.120539 0.120733 0.120927 0.12112 0.121314
0.121507 0.121701 0.121894 0.122087 0.122281 0.122473 0.122666 0.122859 0.123052 0.123245
0.123438 0.12363 0.123823 0.124015 0.124207 0.124399 0.124591 0.124783 0.124975 0.125167
0.125359 0.12555 0.125742 0.125934 0.126125 0.126316 0.126507 0.126698 0.126889 0.127081
0.127271 0.127462 0.127653 0.127843 0.128034 0.128224 0.128415 0.128605 0.128795 0.128985
0.129176 0.129366 0.129556 0.129746 0.129936 0.130126 0.130315 0.130505 0.130695 0.130885
0.131074 0.131264 0.131454 0.131643 0.131833 0.132022 0.132212 0.132401 0.132591 0.13278
0.132969 0.133159 0.133348 0.133538 0.133727 0.133916 0.134105 0.134294 0.134484 0.134673
0.134862 0.135051 0.13524 0.135429 0.135618 0.135807 0.135996 0.136185 0.136374 0.136563
0.136752 0.136941 0.13713 0.137319 0.137508 0.137697 0.137886 0.138075 0.138263 0.138452
0.138641 0.13883 0.139019 0.139208 0.139397 0.139585 0.139774 0.139963 0.140152 0.14034
0.140529 0.140718 0.140907 0.141095 0.141284 0.141473 0.141661 0.14185 0.142039 0.142228
0.142416 0.142605 0.142794 0.142982 0.143171 0.14336 0.143548 0.143737 0.143926 0.144114
0.144303 0.144491 0.14468 0.144869 0.145057 0.145246 0.145435 0.145623 0.145812 0.146001
0.146189 0.146378 0.146566 0.146755 0.146943 0.147132 0.14732 0.147509 0.147698 0.147886
0.148075 0.148263 0.148452 0.148641 0.148829 0.149017 0.149206 0.149395 0.149583 0.149772
0.14996 0.150149 0.150337 0.150526 0.150714 0.150903 0.151091 0.15128 0.151468 0.151657
0.152033 0.15241 0.152787 0.153163 0.15354 0.154291 0.155043 0.155794 0.156546 0.157297
0.158798 0.160299 0.1618 0.163301 0.164802 0.166302 0.167803 0.169304 0.170805 0.172305
0.175306 0.178306 0.181307 0.184308 0.187308 0.193309 0.199309 0.205309 0.211309 0.21731
0.22331 0.22931 0.23531 0.24131 0.24731 0.25331 0.259311 0.265311 0.271311 0.277311
0.283311 0.289311 0.295311 0.301311 0.307312 0.313312 0.319312 0.325312 0.331312 0.337312
0.343312 0.349312 0.355313 0.361313 0.367313 0.373313 0.379313 0.385313 0.391313 0.397313
0.403313 0.405706 0 7.36983e-05 0.000147401 0.000221107 0.000294817 0.000368531 0.000559183 0.00074987
0.00094059 0.00113134 0.00132213 0.00151296 0.00170381 0.00189471 0.00208564 0.0022766 0.0024676 0.00265864
0.00284972 0.00304083 0.00323198 0.00342318 0.00361441 0.00380568 0.00399699 0.00418835 0.00437974 0.00457118
0.00476266 0.00495419 0.00514576 0.00533737 0.00552903 0.00572074 0.00591249 0.00610429 0.00629614 0.00648803
0.00667998 0.00687198 0.00706403 0.00725613 0.00744828 0.00764049 0.00783275 0.00802507 0.00809714 0.00816923
0.00824132 0.00831342 0.00840671 0.00852284 0.00863899 0.00875516 0.00887135 0.00898756 0.00918022 0.00937295
0.00956573 0.00975858 0.00995149 0.0101445 0.0103375 0.0105306 0.0107238 0.010917 0.0111103 0.0113037
0.0114972 0.0116907 0.0118843 0.012078 0.0122718 0.0124656 0.0126595 0.0128535 0.0130476 0.0132417
0.013436 0.0136303 0.0138247 0.0138345 0.0138443 0.0138541 0.0138639 0.0138735 0.0140582 0.0142431
0.014428 0.014613 0.0147981 0.0149931 0.0151882 0.0153833 0.0155786 0.015774 0.0159694 0.016165
0.0163607 0.0165565 0.0167524 0.0169484 0.0171445 0.0173408 0.0175371 0.0177336 0.0179302 0.018127
0.0183238 0.0185208 0.018718 0.0189152 0.0191126 0.0193102 0.0195078 0.0197057 0.0199036 0.0201017
0.0203 0.0204985 0.020697 0.0208958 0.0210947 0.0212938 0.021493 0.0216925 0.0218921 0.0220919
0.0222918 0.022492 0.0226923 0.0228929 0.0230936 0.0232946 0.0234957 0.0236971 0.0238986 0.0241004
0.0243025 0.0245047 0.0247072 0.0249099 0.0251129 0.0253161 0.0255195 0.0257233 0.0259272 0.0261315
0.026336 0.0265408 0.0267459 0.0269513 0.027157 0.0273629 0.0275692 0.0277759 0.0279828 0.02819
0.0283977 0.0286056 0.0288139 0.0290226 0.0292316 0.029441 0.0296509 0.0298611 0.0300716 0.0302827
0.0304941 0.030706 0.0309183 0.0311311 0.0313443 0.031558 0.0317722 0.0319869 0.0322021 0.0324178
0.0326341 0.0328509 0.0330682 0.0332861 0.0335047 0.0337238 0.0339435 0.0341639 0.0343848 0.0346065
0.0348289 0.0350519 0.0352756 0.0355001 0.0357253 0.0359512 0.036178 0.0364055 0.0366339 0.0368631
0.0370932 0.0373242 0.037556 0.0377887 0.0380224 0.0382571 0.0384927 0.0387294 0.038967 0.0392058
0.0394457 0.0396866 0.0399287 0.0401719 0.0404162 0.0406616 0.0409083 0.0411563 0.0414055 0.0416559
0.0419077 0.0421608 0.0424153 0.0426709 0.0429277 0.0431857 0.043445 0.043706 0.0439681 0.0442315
0.044496 0.0447615 0.0450291 0.0452971 0.0455656 0.0458347 0.0461044 0.0463765 0.0465077 0.046639
0.0467702 0.0469013 0.0469824 0.0471331 0.0472836 0.047434 0.0475842 0.0477354 0.0480066 0.048276
0.0485437 0.0488095 0.0490784 0.0492292 0.0493786 0.0495269 0.049674 0.0497864 0.0499033 0.0500194
0.0501348 0.0502496 0.0503644 0.0506125 0.0508555 0.0510935 0.0513267 0.0515566 0.0515752 0.0515937
0.0516122 0.0516306 0.0516491 0.051853 0.0520524 0.0522476 0.0524387 0.0526239 0.0527387 0.0528517
0.052963 0.0530729 0.0532113 0.0532827 0.0533535 0.0534237 0.0534933 0.0535619 0.0537369 0.0539084
0.0540764 0.0542411 0.0543994 0.0545416 0.0546822 0.0548213 0.0549587 0.0551685 0.055188 0.0552074
0.0552269 0.0552463 0.0552693 0.0553962 0.0555225 0.0556484 0.0557738 0.055898 0.0560415 0.0561852
0.0563291 0.0564731 0.056617 0.056761 0.0569053 0.0570499 0.0571949 0.0573403 0.057486 0.0576322
0.0577787 0.0579255 0.0580727 0.0582203 0.0583682 0.0585164 0.0586649 0.0588138 0.058963 0.0591126
0.0592624 0.0594126 0.0595631 0.059714 0.0598651 0.0600166 0.0601683 0.0603204 0.0604728 0.0606255
0.0607786 0.0609319 0.0610856 0.0612397 0.061394 0.0615487 0.0617038 0.0618592 0.0620149 0.062171
0.0623275 0.0624843 0.0626415 0.062799 0.0629569 0.0631151 0.0632738 0.0634327 0.0635921 0.0637518
0.0639119 0.0640723 0.0642331 0.0643942 0.0645557 0.0647175 0.0648796 0.0650339 0.0650355 0.0650372
0.0650389 0.0650405 0.0650422 0.065205 0.0653683 0.0655318 0.0656956 0.0658598 0.0660243 0.0661892
0.0663543 0.0665197 0.0666854 0.0668515 0.0670178 0.0671845 0.0673514 0.0675186 0.0676861 0.0678539
0.0680219 0.0681901 0.0683587 0.0685275 0.0686966 0.0688659 0.0690355 0.0692053 0.0693753 0.0695456
0.069716 0.0698867 0.0700577 0.0702288 0.0704002 0.0705718 0.0707436 0.0709156 0.0710878 0.0712601
0.0714326 0.0716053 0.0717783 0.0719513 0.0721246 0.072298 0.0724716 0.0726454 0.0728193 0.0729933
0.0731675 0.0733418 0.0735162 0.0736908 0.0738655 0.0740403 0.0742153 0.0743903 0.0745655 0.0747407
0.074916 0.0750914 0.0752668 0.0754424 0.0756181 0.0757937 0.0759695 0.0761453 0.0763211 0.076497
0.0766729 0.0768487 0.0770246 0.0772006 0.0773765 0.0775525 0.0777284 0.0779043 0.0780802 0.078256
0.0784318 0.0786076 0.0787833 0.078959 0.0791347 0.0793103 0.0794859 0.0796614 0.0798369 0.0800123
0.0801877 0.080363 0.0805383 0.0807136 0.0808888 0.0810641 0.0812393 0.0814145 0.0815897 0.0817649
0.0819401 0.0821153 0.0822906 0.0824659 0.0826412 0.0828167 0.0829922 0.0831677 0.0833433 0.083519
0.0836948 0.0838706 0.0840466 0.0842227 0.0843989 0.0845752 0.0847517 0.0849282 0.0851049 0.0852816
0.0854585 0.0856355 0.0858127 0.0859899 0.0861673 0.0863449 0.0865225 0.0867003 0.0868782 0.0870562
0.0872343 0.0874125 0.0875908 0.0877693 0.0879479 0.0881266 0.0883055 0.0884844 0.0886635 0.0888426
0.0890219 0.0892012 0.0893807 0.0895603 0.08974 0.0899198 0.0900998 0.0902798 0.0904599 0.0906401
0.0908204 0.0910008 0.0911813 0.0913619 0.0915426 0.0917234 0.0919044 0.0920854 0.0922665 0.0924477
0.092629 0.0928105 0.092992 0.0931736 0.0933554 0.0935373 0.0937193 0.0939014 0.0940836 0.0942659
0.0944484 0.094631 0.0948137 0.0949965 0.0951796 0.0953628 0.0955461 0.0957296 0.0959132 0.0960969
0.0962809 0.096465 0.0966493 0.0968338 0.0970185 0.0972035 0.0973886 0.0975739 0.0977595 0.0979452
0.0981312 0.0983173 0.0985037 0.0986908 0.098878 0.0990654 0.0992528 0.0994403 0.0996269 0.0998132
0.0999993 0.100185 0.100371 0.100542 0.100712 0.100882 0.101052 0.101233 0.101245 0.101257
0.101269 0.101281 0.101293 0.101476 0.101659 0.101841 0.102022 0.102203 0.102376 0.102549
0.102722 0.102894 0.103103 0.103111 0.103118 0.103126 0.103134 0.103141 0.103313 0.103484
0.103656 0.103827 0.103999 0.104178 0.104358 0.104538 0.104718 0.104899 0.10508 0.105263
0.105446 0.10563 0.105815 0.106 0.106187 0.106376 0.106566 0.106757 0.106899 0.107041
0.107185 0.107329 0.107388 0.107458 0.107529 0.1076 0.10767 0.107742 0.107944 0.108149
0.108356 0.108565 0.108778 0.108992 0.10921 0.10943 0.109652 0.109878 0.110106 0.110337
0.110571 0.110807 0.111047 0.111289 0.111534 0.111782 0.112033 0.112287 0.112544 0.112803
0.113066 0.113331 0.113599 0.11387 0.114144 0.11442 0.1147 0.114982 0.115268 0.115557
0.11585 0.116145 0.116443 0.116745 0.117049 0.117356 0.117666 0.117979 0.118295 0.118612
0.118932 0.119252 0.119575 0.1199 0.120226 0.120552 0.120879 0.121206 0.121532 0.121857
0.12218 0.122502 0.122823 0.123144 0.123464 0.123783 0.1241 0.124415 0.124728 0.125038
0.125345 0.125651 0.125956 0.126259 0.126561 0.126861 0.127159 0.127456 0.127614 0.127771
0.127928 0.128085 0.128246 0.128379 0.128513 0.128646 0.128779 0.128911 0.129197 0.129482
0.129765 0.130047 0.130326 0.130604 0.130882 0.131158 0.131433 0.131706 0.131978 0.132249
0.132518 0.132787 0.133055 0.133322 0.133588 0.133853 0.134117 0.13438 0.134643 0.134905
0.135166 0.135426 0.135686 0.135945 0.136203 0.136461 0.136718 0.136975 0.137031 0.137087
0.137143 0.137199 0.137257 0.137456 0.137655 0.137854 0.138052 0.13825 0.138503 0.138756
0.139008 0.13926 0.139512 0.139762 0.140013 0.140263 0.140513 0.140762 0.141011 0.14126
0.141508 0.141756 0.142004 0.142251 0.142499 0.142746 0.142992 0.143239 0.143485 0.143731
0.143977 0.144223 0.144469 0.144714 0.144959 0.145205 0.14545 0.145695 0.145939 0.146184
0.146429 0.146674 0.146919 0.147163 0.147407 0.147652 0.147897 0.148141 0.148385 0.14863
0.148874 0.149119 0.149363 0.149607 0.149852 0.150096 0.150341 0.150586 0.15083 0.151074
0.151319 0.151564 0.151809 0.152053 0.152298 0.152544 0.152789 0.153034 0.153279 0.153524
0.15377 0.154015 0.154261 0.154506 0.154752 0.154998 0.155244 0.155491 0.155736 0.155982
0.156229 0.156476 0.156722 0.156968 0.157215 0.157462 0.157709 0.157957 0.158203 0.15845
0.158697 0.158945 0.159192 0.159439 0.159686 0.159934 0.160182 0.160429 0.160676 0.160924
0.161172 0.16142 0.161668 0.161915 0.162163 0.162411 0.162659 0.162907 0.163155 0.163403
0.163651 0.163899 0.164147 0.164395 0.164643 0.164891 0.165139 0.165387 0.165635 0.165883
0.166131 0.166379 0.166627 0.166875 0.167123 0.167371 0.16762 0.167868 0.167878 0.167888
0.167897 0.167907 0.167917 0.168404 0.168889 0.169359 0.169813 0.170254 0.171103 0.171954
0.172801 0.173644 0.174465 0.176034 0.177577 0.179119 0.18066 0.182201 0.183725 0.185258
0.186791 0.188323 0.189855 0.192889 0.195926 0.198961 0.201995 0.205027 0.211045 0.217063
0.22308 0.229097 0.235114 0.241117 0.247127 0.253137 0.259147 0.265157 0.271159 0.277168
0.283178 0.289187 0.295197 0.301199 0.307208 0.313217 0.319226 0.325235 0.331237 0.337245
0.343254 0.349262 0.35527 0.361272 0.36728 0.373288 0.379296 0.385304 0.391305 0.397313
0.40332 0.409328 0.415335 0.421337 0.427387 0.433484 0.439628 0.445819 0 7.36744e-05
0.000147354 0.000221037 0.000294726 0.000368419 0.000559017 0.000749649 0.000940313 0.00113101 0.00132174 0.0015125
0.0017033 0.00189414 0.002085 0.00227591 0.00246684 0.00265782 0.00284883 0.00303988 0.00323097 0.00342209
0.00361325 0.00380446 0.0039957 0.00418698 0.00437831 0.00456967 0.00476108 0.00495253 0.00514402 0.00533556
0.00552714 0.00571877 0.00591044 0.00610216 0.00629393 0.00648574 0.0066776 0.00686951 0.00706148 0.00725349
0.00744555 0.00763766 0.00782983 0.00802205 0.00821432 0.00840665 0.00859904 0.00879148 0.00898398 0.00917654
0.00936916 0.00956183 0.00975457 0.00994737 0.0101402 0.0103332 0.0105262 0.0107192 0.0109123 0.0111055
0.0112988 0.0114921 0.0116855 0.011879 0.0120725 0.0122662 0.0124599 0.0126536 0.0128475 0.0130414
0.0132354 0.0134295 0.0136237 0.0138179 0.0140123 0.0142067 0.0144012 0.0145959 0.0147906 0.0149854
0.0151802 0.0153752 0.0155703 0.0157655 0.0159608 0.0161562 0.0163517 0.0165472 0.016743 0.0169388
0.0171347 0.0173307 0.0175269 0.0177232 0.0179196 0.0181161 0.0183127 0.0185095 0.0187064 0.0189034
0.0191005 0.0192978 0.0194953 0.0196928 0.0198906 0.0200884 0.0202864 0.0204846 0.0206829 0.0208814
0.02108 0.0212788 0.0214778 0.0216769 0.0218762 0.0220757 0.0222753 0.0224752 0.0226752 0.0228754
0.0230758 0.0232764 0.0234773 0.0236783 0.0238795 0.0240809 0.0242826 0.0244845 0.0246866 0.024889
0.0250915 0.0252944 0.0254975 0.0257008 0.0259044 0.0261082 0.0263124 0.0265168 0.0267215 0.0269264
0.0271317 0.0273373 0.0275432 0.0277494 0.0279559 0.0281628 0.02837 0.0285775 0.0287855 0.0289937
0.0292024 0.0294114 0.0296208 0.0298307 0.0298602 0.0298898 0.0299194 0.029949 0.0299781 0.0301591
0.0303405 0.0305221 0.0307042 0.0308865 0.031099 0.0313119 0.0315254 0.0317394 0.0319538 0.0321688
0.0323844 0.0326006 0.0328173 0.0330347 0.0332526 0.0334712 0.0336904 0.0339104 0.034131 0.0343523
0.0345744 0.0347972 0.0350209 0.0352454 0.0354706 0.0356968 0.0359238 0.0361518 0.0363808 0.0366107
0.0368417 0.0370738 0.0373071 0.0375414 0.0377769 0.0380136 0.0382517 0.0384911 0.0387318 0.038974
0.0392178 0.0394632 0.0397104 0.0399591 0.0402095 0.0404619 0.0407162 0.0409726 0.0412311 0.0414917
0.0417549 0.0420207 0.0422891 0.0425602 0.0428347 0.0431122 0.0433931 0.0436774 0.0439654 0.0442565
0.0445518 0.0448516 0.0451558 0.0454656 0.0457779 0.0460951 0.0464172 0.0467441 0.0470815 0.0472734
0.0474673 0.0476629 0.04786 0.0479352 0.0481187 0.0483032 0.0484888 0.0486754 0.0488686 0.0492027
0.0495395 0.0498783 0.0502159 0.0502957 0.050397 0.050498 0.0505989 0.0506995 0.0508034 0.0510235