# vtk DataFile Version 2.0
tracks
ASCII
DATASET POLYDATA
POINTS 13835 float
-1.001 1e-07 0.0011 -0.99955 1e-07 0.0011 -0.9981 1e-07 0.0011 -0.99665 1e-07
0.0011 -0.9952 1e-07 0.0011 -0.99375 1e-07 0.0011 -0.99 1e-07 0.0011
-0.98625 1e-07 0.0011 -0.9825 1e-07 0.0011 -0.97875 1e-07 0.0011 -0.975
1e-07 0.0011 -0.97125 1e-07 0.0011 -0.9675 1e-07 0.0011 -0.96375 1e-07
0.0011 -0.96 1e-07 0.0011 -0.95625 1e-07 0.0011 -0.9525 1e-07 0.0011
-0.94875 1e-07 0.0011 -0.945 1e-07 0.0011 -0.94125 1e-07 0.0011 -0.9375
1e-07 0.0011 -0.93375 1e-07 0.0011 -0.93 1e-07 0.0011 -0.92625 1e-07
0.0011 -0.9225 1e-07 0.0011 -0.91875 1e-07 0.0011 -0.915 1e-07 0.0011
-0.91125 1e-07 0.0011 -0.9075 1e-07 0.0011 -0.90375 1e-07 0.0011 -0.9
1e-07 0.0011 -0.89625 1e-07 0.0011 -0.8925 1e-07 0.0011 -0.88875 1e-07
0.0011 -0.885 1e-07 0.0011 -0.88125 1e-07 0.0011 -0.8775 1e-07 0.0011
-0.87375 1e-07 0.0011 -0.87 1e-07 0.0011 -0.86625 1e-07 0.0011 -0.8625
1e-07 0.0011 -0.85875 1e-07 0.0011 -0.855 1e-07 0.0011 -0.85125 1e-07
0.0011 -0.8475 1e-07 0.0011 -0.84375 1e-07 0.0011 -0.84 1e-07 0.0011
-0.83625 1e-07 0.0011 -0.8325 1e-07 0.0011 -0.82875 1e-07 0.0011 -0.825
1e-07 0.0011 -0.82125 1e-07 0.0011 -0.8175 1e-07 0.0011 -0.81375 1e-07
0.0011 -0.81 1e-07 0.0011 -0.80625 1e-07 0.0011 -0.8025 1e-07 0.0011
-0.79875 1e-07 0.0011 -0.795 1e-07 0.0011 -0.79125 1e-07 0.0011 -0.7875
1e-07 0.0011 -0.78375 1e-07 0.0011 -0.78 1e-07 0.0011 -0.77625 1e-07
0.0011 -0.7725 1e-07 0.0011 -0.76875 1e-07 0.0011 -0.765 1e-07 0.0011
-0.76125 1e-07 0.0011 -0.7575 1e-07 0.0011 -0.75375 1e-07 0.0011 -0.75
1e-07 0.0011 -0.74625 1e-07 0.0011 -0.7425 1e-07 0.0011 -0.73875 1e-07
0.0011 -0.735 1e-07 0.0011 -0.73125 1e-07 0.0011 -0.7275 1e-07 0.0011
-0.72375 1e-07 0.0011 -0.72 1e-07 0.0011 -0.71625 1e-07 0.0011 -0.7125
1e-07 0.0011 -0.70875 1e-07 0.0011 -0.705 1e-07 0.0011 -0.70125 1e-07
0.0011 -0.6975 1e-07 0.0011 -0.69375 1e-07 0.0011 -0.69 1e-07 0.0011
-0.68625 1e-07 0.0011 -0.6825 1e-07 0.0011 -0.67875 1e-07 0.0011 -0.675
1e-07 0.0011 -0.67125 1e-07 0.0011 -0.6675 1e-07 0.0011 -0.66375 1e-07
0.0011 -0.66 1e-07 0.0011 -0.65625 1e-07 0.0011 -0.6525 1e-07 0.0011
-0.64875 1e-07 0.0011 -0.645 1e-07 0.0011 -0.64125 1e-07 0.0011 -0.6375
1e-07 0.0011 -0.63375 1e-07 0.0011 -0.63 1e-07 0.0011 -0.62625 1e-07
0.0011 -0.6225 1e-07 0.0011 -0.61875 1e-07 0.0011 -0.615 1e-07 0.0011
-0.61125 1e-07 0.0011 -0.6075 1e-07 0.0011 -0.60375 1e-07 0.0011 -0.6
1e-07 0.0011 -0.59625 1e-07 0.0011 -0.5925 1e-07 0.0011 -0.58875 1e-07
0.0011 -0.585 1e-07 0.0011 -0.58125 1e-07 0.0011 -0.5775 1e-07 0.0011
-0.57375 1e-07 0.0011 -0.57 1e-07 0.0011 -0.56625 1e-07 0.0011 -0.5625
1e-07 0.0011 -0.55875 1e-07 0.0011 -0.555 1e-07 0.0011 -0.55125 1e-07
0.0011 -0.5475 1e-07 0.0011 -0.54375 1e-07 0.0011 -0.54 1e-07 0.0011
-0.53625 1e-07 0.0011 -0.5325 1e-07 0.0011 -0.52875 1e-07 0.0011 -0.525
1e-07 0.0011 -0.52125 1e-07 0.0011 -0.5175 1e-07 0.0011 -0.51375 1e-07
0.0011 -0.51 1e-07 0.0011 -0.50625 1e-07 0.0011 -0.5025 1e-07 0.0011
-0.49875 1e-07 0.0011 -0.495 1e-07 0.0011 -0.49125 1e-07 0.0011 -0.4875
1e-07 0.0011 -0.48375 1e-07 0.0011 -0.48 1e-07 0.0011 -0.47625 1e-07
0.0011 -0.4725 1e-07 0.0011 -0.46875 1e-07 0.0011 -0.465 1e-07 0.0011
-0.46125 1e-07 0.0011 -0.4575 1e-07 0.0011 -0.45375 1e-07 0.0011 -0.45
1e-07 0.0011 -0.44625 1e-07 0.0011 -0.4425 1e-07 0.0011 -0.43875 1e-07
0.0011 -0.435 1e-07 0.0011 -0.43125 1e-07 0.0011 -0.4275 1e-07 0.0011
-0.42375 1e-07 0.0011 -0.42 1e-07 0.0011 -0.41625 1e-07 0.0011 -0.4125
1e-07 0.0011 -0.40875 1e-07 0.0011 -0.405 1e-07 0.0011 -0.40125 1e-07
0.0011 -0.3975 1e-07 0.0011 -0.39375 1e-07 0.0011 -0.39 1e-07 0.0011
-0.38625 1e-07 0.0011 -0.3825 1e-07 0.0011 -0.37875 1e-07 0.0011 -0.375
1e-07 0.0011 -0.37125 1e-07 0.0011 -0.3675 1e-07 0.0011 -0.36375 1e-07
0.0011 -0.36 1e-07 0.0011 -0.35625 1e-07 0.0011 -0.3525 1e-07 0.0011
-0.34875 1e-07 0.0011 -0.345 1e-07 0.0011 -0.34125 1e-07 0.0011 -0.3375
1e-07 0.0011 -0.33375 1e-07 0.0011 -0.33 1e-07 0.0011 -0.32625 1e-07
0.0011 -0.3225 1e-07 0.0011 -0.31875 1e-07 0.0011 -0.315 1e-07 0.0011
-0.31125 1e-07 0.0011 -0.3075 1e-07 0.0011 -0.30375 1e-07 0.0011 -0.3
1e-07 0.0011 -0.29625 1e-07 0.0011 -0.2925 1e-07 0.0011 -0.28875 1e-07
0.0011 -0.285 1e-07 0.0011 -0.28125 1e-07 0.0011 -0.2775 1e-07 0.0011
-0.27375 1e-07 0.0011 -0.27 1e-07 0.0011 -0.26625 1e-07 0.0011 -0.2625
1e-07 0.0011 -0.25875 1e-07 0.0011 -0.255 1e-07 0.0011 -0.25125 1e-07
0.0011 -0.2475 1e-07 0.0011 -0.24375 1e-07 0.0011 -0.24 1e-07 0.0011
-0.23625 1e-07 0.0011 -0.2325 1e-07 0.0011 -0.22875 1e-07 0.0011 -0.225
1e-07 0.0011 -0.22125 1e-07 0.0011 -0.2175 1e-07 0.0011 -0.21375 1e-07
0.0011 -0.21 1e-07 0.0011 -0.20625 1e-07 0.0011 -0.2025 1e-07 0.0011
-0.19875 1e-07 0.0011 -0.195 1e-07 0.0011 -0.19125 1e-07 0.0011 -0.1875
1e-07 0.0011 -0.18375 1e-07 0.0011 -0.18 1e-07 0.0011 -0.17625 1e-07
0.0011 -0.1725 1e-07 0.0011 -0.16875 1e-07 0.0011 -0.165 1e-07 0.0011
-0.16125 1e-07 0.0011 -0.1575 1e-07 0.0011 -0.15375 1e-07 0.0011 -0.15
1e-07 0.0011 -0.14625 1e-07 0.0011 -0.1425 1e-07 0.0011 -0.13875 1e-07
0.0011 -0.135 1e-07 0.0011 -0.13125 1e-07 0.0011 -0.1275 1e-07 0.0011
-0.12375 1e-07 0.0011 -0.12 1e-07 0.0011 -0.11625 1e-07 0.0011 -0.1125
1e-07 0.0011 -0.10875 1e-07 0.0011 -0.105 1e-07 0.0011 -0.10125 1e-07
0.0011 -0.0975 1e-07 0.0011 -0.0937499 1e-07 0.0011 -0.0899999 1e-07 0.0011
-0.0862499 1e-07 0.0011 -0.0824999 1e-07 0.0011 -0.0787499 1e-07 0.0011 -0.0749999
1e-07 0.0011 -0.0712499 1e-07 0.0011 -0.0674999 1e-07 0.0011 -0.0637499 1e-07
0.0011 -0.0599999 1e-07 0.0011 -0.0562499 1e-07 0.0011 -0.0524999 1e-07 0.0011
-0.0487498 1e-07 0.0011 -0.0449998 1e-07 0.0011 -0.0412498 1e-07 0.0011 -0.0374998
1e-07 0.0011 -0.0337498 1e-07 0.0011 -0.0299999 1e-07 0.0011 -0.0262499 1e-07
0.0011 -0.0224999 1e-07 0.0011 -0.0187499 1e-07 0.0011 -0.0149999 1e-07 0.0011
-0.0112499 1e-07 0.0011 -0.00749991 1e-07 0.0011 -0.00374993 1e-07 0.0011 6.11899e-08
1e-07 0.0011 0.00375005 1e-07 0.0011 0.00750005 1e-07 0.0011 0.01125 1e-07
0.0011 0.015 1e-07 0.0011 0.01875 1e-07 0.0011 0.0225 1e-07 0.0011
0.02625 1e-07 0.0011 0.03 1e-07 0.0011 0.03375 1e-07 0.0011 0.0375
1e-07 0.0011 0.04125 1e-07 0.0011 0.045 1e-07 0.0011 0.04875 1e-07
0.0011 0.0525 1e-07 0.0011 0.05625 1e-07 0.0011 0.06 1e-07 0.0011
0.06375 1e-07 0.0011 0.0675 1e-07 0.0011 0.07125 1e-07 0.0011 0.075
1e-07 0.0011 0.07875 1e-07 0.0011 0.0825 1e-07 0.0011 0.08625 1e-07
0.0011 0.09 1e-07 0.0011 0.09375 1e-07 0.0011 0.0975 1e-07 0.0011
0.10125 1e-07 0.0011 0.105 1e-07 0.0011 0.10875 1e-07 0.0011 0.1125
1e-07 0.0011 0.11625 1e-07 0.0011 0.12 1e-07 0.0011 0.12375 1e-07
0.0011 0.1275 1e-07 0.0011 0.13125 1e-07 0.0011 0.135 1e-07 0.0011
0.13875 1e-07 0.0011 0.1425 1e-07 0.0011 0.14625 1e-07 0.0011 0.15
1e-07 0.0011 0.15375 1e-07 0.0011 0.1575 1e-07 0.0011 0.16125 1e-07
0.0011 0.165 1e-07 0.0011 0.16875 1e-07 0.0011 0.1725 1e-07 0.0011
0.17625 1e-07 0.0011 0.18 1e-07 0.0011 0.18375 1e-07 0.0011 0.1875
1e-07 0.0011 0.19125 1e-07 0.0011 0.195 1e-07 0.0011 0.19875 1e-07
0.0011 0.2025 1e-07 0.0011 0.20625 1e-07 0.0011 0.21 1e-07 0.0011
0.21375 1e-07 0.0011 0.2175 1e-07 0.0011 0.22125 1e-07 0.0011 0.225
1e-07 0.0011 0.22875 1e-07 0.0011 0.2325 1e-07 0.0011 0.23625 1e-07
0.0011 0.24 1e-07 0.0011 0.24375 1e-07 0.0011 0.2475 1e-07 0.0011
0.25125 1e-07 0.0011 0.255 1e-07 0.0011 0.25875 1e-07 0.0011 0.2625
1e-07 0.0011 0.26625 1e-07 0.0011 0.27 1e-07 0.0011 0.27375 1e-07
0.0011 0.2775 1e-07 0.0011 0.28125 1e-07 0.0011 0.285 1e-07 0.0011
0.28875 1e-07 0.0011 0.2925 1e-07 0.0011 0.29625 1e-07 0.0011 0.3
1e-07 0.0011 0.30375 1e-07 0.0011 0.3075 1e-07 0.0011 0.31125 1e-07
0.0011 0.315 1e-07 0.0011 0.31875 1e-07 0.0011 0.3225 1e-07 0.0011
0.32625 1e-07 0.0011 0.33 1e-07 0.0011 0.33375 1e-07 0.0011 0.3375
1e-07 0.0011 0.34125 1e-07 0.0011 0.345 1e-07 0.0011 0.34875 1e-07
0.0011 0.3525 1e-07 0.0011 0.35625 1e-07 0.0011 0.36 1e-07 0.0011
0.36375 1e-07 0.0011 0.3675 1e-07 0.0011 0.37125 1e-07 0.0011 0.375
1e-07 0.0011 0.37875 1e-07 0.0011 0.3825 1e-07 0.0011 0.38625 1e-07
0.0011 0.39 1e-07 0.0011 0.39375 1e-07 0.0011 0.3975 1e-07 0.0011
0.40125 1e-07 0.0011 0.405 1e-07 0.0011 0.40875 1e-07 0.0011 0.4125
1e-07 0.0011 0.41625 1e-07 0.0011 0.42 1e-07 0.0011 0.42375 1e-07
0.0011 0.4275 1e-07 0.0011 0.43125 1e-07 0.0011 0.435 1e-07 0.0011
0.43875 1e-07 0.0011 0.4425 1e-07 0.0011 0.44625 1e-07 0.0011 0.45
1e-07 0.0011 0.45375 1e-07 0.0011 0.4575 1e-07 0.0011 0.46125 1e-07
0.0011 0.465 1e-07 0.0011 0.46875 1e-07 0.0011 0.4725 1e-07 0.0011
0.47625 1e-07 0.0011 0.48 1e-07 0.0011 0.48375 1e-07 0.0011 0.4875
1e-07 0.0011 0.49125 1e-07 0.0011 0.495 1e-07 0.0011 0.49875 1e-07
0.0011 0.5025 1e-07 0.0011 0.50625 1e-07 0.0011 0.51 1e-07 0.0011
0.51375 1e-07 0.0011 0.5175 1e-07 0.0011 0.52125 1e-07 0.0011 0.525
1e-07 0.0011 0.52875 1e-07 0.0011 0.5325 1e-07 0.0011 0.53625 1e-07
0.0011 0.54 1e-07 0.0011 0.54375 1e-07 0.0011 0.5475 1e-07 0.0011
0.55125 1e-07 0.0011 0.555 1e-07 0.0011 0.55875 1e-07 0.0011 0.5625
1e-07 0.0011 0.56625 1e-07 0.0011 0.57 1e-07 0.0011 0.57375 1e-07
0.0011 0.5775 1e-07 0.0011 0.58125 1e-07 0.0011 0.585 1e-07 0.0011
0.58875 1e-07 0.0011 0.5925 1e-07 0.0011 0.59625 1e-07 0.0011 0.6
1e-07 0.0011 0.60375 1e-07 0.0011 0.6075 1e-07 0.0011 0.61125 1e-07
0.0011 0.615 1e-07 0.0011 0.61875 1e-07 0.0011 0.6225 1e-07 0.0011
0.62625 1e-07 0.0011 0.63 1e-07 0.0011 0.63375 1e-07 0.0011 0.6375
1e-07 0.0011 0.64125 1e-07 0.0011 0.645 1e-07 0.0011 0.64875 1e-07
0.0011 0.6525 1e-07 0.0011 0.65625 1e-07 0.0011 0.66 1e-07 0.0011
0.66375 1e-07 0.0011 0.6675 1e-07 0.0011 0.67125 1e-07 0.0011 0.675
1e-07 0.0011 0.67875 1e-07 0.0011 0.6825 1e-07 0.0011 0.68625 1e-07
0.0011 0.69 1e-07 0.0011 0.69375 1e-07 0.0011 0.6975 1e-07 0.0011
0.70125 1e-07 0.0011 0.705 1e-07 0.0011 0.70875 1e-07 0.0011 0.7125
1e-07 0.0011 0.71625 1e-07 0.0011 0.72 1e-07 0.0011 0.72375 1e-07
0.0011 0.7275 1e-07 0.0011 0.73125 1e-07 0.0011 0.735 1e-07 0.0011
0.73875 1e-07 0.0011 0.7425 1e-07 0.0011 0.74625 1e-07 0.0011 0.75
1e-07 0.0011 0.75375 1e-07 0.0011 0.7575 1e-07 0.0011 0.76125 1e-07
[...]
POINT_DATA 13835
FIELD attributes 3
age 1 13835 float
0 7.25e-05 0.000145 0.0002175 0.00029 0.0003625 0.00055 0.0007375 0.000925 0.0011125 0.0013
0.0014875 0.001675 0.0018625 0.00205 0.0022375 0.002425 0.0026125 0.0028 0.0029875 0.003175
0.0033625 0.00355 0.0037375 0.003925 0.0041125 0.0043 0.0044875 0.004675 0.0048625 0.00505
0.0052375 0.005425 0.0056125 0.0058 0.0059875 0.006175 0.0063625 0.00655 0.0067375 0.006925
0.0071125 0.0073 0.0074875 0.007675 0.0078625 0.00805 0.0082375 0.008425 0.0086125 0.0088
0.0089875 0.009175 0.0093625 0.00955 0.0097375 0.009925 0.0101125 0.0103 0.0104875 0.010675
0.0108625 0.01105 0.0112375 0.011425 0.0116125 0.0118 0.0119875 0.012175 0.0123625 0.01255
0.0127375 0.012925 0.0131125 0.0133 0.0134875 0.013675 0.0138625 0.01405 0.0142375 0.014425
0.0146125 0.0148 0.0149875 0.015175 0.0153625 0.01555 0.0157375 0.015925 0.0161125 0.0163
0.0164875 0.016675 0.0168625 0.01705 0.0172375 0.017425 0.0176125 0.0178 0.0179875 0.018175
0.0183625 0.01855 0.0187375 0.018925 0.0191125 0.0193 0.0194875 0.019675 0.0198625 0.02005
0.0202375 0.020425 0.0206125 0.0208 0.0209875 0.021175 0.0213625 0.02155 0.0217375 0.021925
0.0221125 0.0223 0.0224875 0.022675 0.0228625 0.02305 0.0232375 0.023425 0.0236125 0.0238
0.0239875 0.024175 0.0243625 0.02455 0.0247375 0.024925 0.0251125 0.0253 0.0254875 0.025675
0.0258625 0.02605 0.0262375 0.026425 0.0266125 0.0268 0.0269875 0.027175 0.0273625 0.02755
0.0277375 0.027925 0.0281125 0.0283 0.0284875 0.028675 0.0288625 0.02905 0.0292375 0.029425
0.0296125 0.0298 0.0299875 0.030175 0.0303625 0.03055 0.0307375 0.030925 0.0311125 0.0313
0.0314875 0.031675 0.0318625 0.03205 0.0322375 0.032425 0.0326125 0.0328 0.0329875 0.033175
0.0333625 0.03355 0.0337375 0.033925 0.0341125 0.0343 0.0344875 0.034675 0.0348625 0.03505
0.0352375 0.035425 0.0356125 0.0358 0.0359875 0.036175 0.0363625 0.03655 0.0367375 0.036925
0.0371125 0.0373 0.0374875 0.037675 0.0378625 0.03805 0.0382375 0.038425 0.0386125 0.0388
0.0389875 0.039175 0.0393625 0.03955 0.0397375 0.039925 0.0401125 0.0403 0.0404875 0.040675
0.0408625 0.04105 0.0412375 0.041425 0.0416125 0.0418 0.0419875 0.042175 0.0423625 0.04255
0.0427375 0.042925 0.0431125 0.0433 0.0434875 0.043675 0.0438625 0.04405 0.0442375 0.044425
0.0446125 0.0448 0.0449875 0.045175 0.0453625 0.04555 0.0457375 0.045925 0.0461125 0.0463
0.0464875 0.046675 0.0468625 0.04705 0.0472375 0.047425 0.0476125 0.0478 0.0479875 0.048175
0.0483625 0.04855 0.0487375 0.048925 0.0491125 0.0493 0.0494875 0.049675 0.0498625 0.05005
0.0502375 0.050425 0.0506125 0.0508 0.0509875 0.051175 0.0513625 0.05155 0.0517375 0.051925
0.0521125 0.0523 0.0524875 0.052675 0.0528625 0.05305 0.0532375 0.053425 0.0536125 0.0538
0.0539875 0.054175 0.0543625 0.05455 0.0547375 0.054925 0.0551125 0.0553 0.0554875 0.055675
0.0558625 0.05605 0.0562375 0.056425 0.0566125 0.0568 0.0569875 0.057175 0.0573625 0.05755
0.0577375 0.057925 0.0581125 0.0583 0.0584875 0.058675 0.0588625 0.05905 0.0592375 0.059425
0.0596125 0.0598 0.0599875 0.060175 0.0603625 0.06055 0.0607375 0.060925 0.0611125 0.0613
0.0614875 0.061675 0.0618625 0.06205 0.0622375 0.062425 0.0626125 0.0628 0.0629875 0.063175
0.0633625 0.06355 0.0637375 0.063925 0.0641125 0.0643 0.0644875 0.064675 0.0648625 0.06505
0.0652375 0.065425 0.0656125 0.0658 0.0659875 0.066175 0.0663625 0.06655 0.0667375 0.066925
0.0671125 0.0673 0.0674875 0.067675 0.0678625 0.06805 0.0682375 0.068425 0.0686125 0.0688
0.0689875 0.069175 0.0693625 0.06955 0.0697375 0.069925 0.0701125 0.0703 0.0704875 0.070675
0.0708625 0.07105 0.0712375 0.071425 0.0716125 0.0718 0.0719875 0.072175 0.0723625 0.07255
0.0727375 0.072925 0.0731125 0.0733 0.0734875 0.073675 0.0738625 0.07405 0.0742375 0.074425
0.0746125 0.0748 0.0749875 0.075175 0.0753625 0.07555 0.0757375 0.075925 0.0761125 0.0763
0.0764875 0.076675 0.0768625 0.07705 0.0772375 0.077425 0.0776125 0.0778 0.0779875 0.078175
0.0783625 0.07855 0.0787375 0.078925 0.0791125 0.0793 0.0794875 0.079675 0.0798625 0.08005
0.0802375 0.080425 0.0806125 0.0808 0.0809875 0.081175 0.0813625 0.08155 0.0817375 0.081925
0.0821125 0.0823 0.0824875 0.082675 0.0828625 0.08305 0.0832375 0.083425 0.0836125 0.0838
0.0839875 0.084175 0.0843625 0.08455 0.0847375 0.084925 0.0851125 0.0853 0.0854875 0.085675
0.0858625 0.08605 0.0862375 0.086425 0.0866125 0.0868 0.0869875 0.087175 0.0873625 0.08755
0.0877375 0.087925 0.0881125 0.0883 0.0884875 0.088675 0.0888625 0.08905 0.0892375 0.089425
0.0896125 0.0898 0.0899875 0.090175 0.0903625 0.09055 0.0907375 0.090925 0.0911125 0.0913
0.0914875 0.091675 0.0918625 0.09205 0.0922375 0.092425 0.0926125 0.0928 0.0929875 0.093175
0.0933625 0.09355 0.0937375 0.093925 0.0941125 0.0943 0.0944875 0.094675 0.0948625 0.09505
0.0952375 0.095425 0.0956125 0.0958 0.0959875 0.096175 0.0963625 0.09655 0.0967375 0.096925
0.0971125 0.0973 0.0974875 0.097675 0.0978625 0.09805 0.0982375 0.098425 0.0986125 0.0988
0.0989875 0.099175 0.0993625 0.09955 0.0997375 0.099925 0.100112 0.1003 0.100488 0.100675
0.100863 0.10105 0.101237 0.101425 0.101613 0.1018 0.101988 0.102175 0.102362 0.10255
0.102738 0.102925 0.103112 0.1033 0.103487 0.103675 0.103863 0.10405 0.104237 0.104425
0.104612 0.1048 0.104988 0.105175 0.105362 0.10555 0.105737 0.105925 0.106113 0.1063
0.106487 0.106675 0.106863 0.10705 0.107238 0.107425 0.107612 0.1078 0.107988 0.108175
0.108363 0.10855 0.108737 0.108925 0.109113 0.1093 0.109487 0.109675 0.109862 0.11005
0.110238 0.110425 0.110612 0.1108 0.110987 0.111175 0.111363 0.11155 0.111737 0.111925
0.112112 0.1123 0.112488 0.112675 0.112862 0.11305 0.113238 0.113425 0.113613 0.1138
0.113987 0.114175 0.114363 0.11455 0.114738 0.114925 0.115112 0.1153 0.115488 0.115675
0.115863 0.11605 0.116237 0.116425 0.116613 0.1168 0.116987 0.117175 0.117362 0.11755
0.117738 0.117925 0.118112 0.1183 0.118487 0.118675 0.118863 0.11905 0.119237 0.119425
0.119613 0.1198 0.119988 0.120175 0.120362 0.12055 0.120738 0.120925 0.121113 0.1213
0.121487 0.121675 0.121863 0.12205 0.122238 0.122425 0.122612 0.1228 0.122988 0.123175
0.123362 0.12355 0.123737 0.123925 0.124113 0.1243 0.124487 0.124675 0.124862 0.12505
0.125237 0.125425 0.125612 0.1258 0.125987 0.126175 0.126363 0.12655 0.126738 0.126925
0.127112 0.1273 0.127487 0.127675 0.127862 0.12805 0.128238 0.128425 0.128613 0.1288
0.128988 0.129175 0.129362 0.12955 0.129737 0.129925 0.130112 0.1303 0.130488 0.130675
0.130863 0.13105 0.131238 0.131425 0.131612 0.1318 0.131987 0.132175 0.132362 0.13255
0.132738 0.132925 0.133113 0.1333 0.133487 0.133675 0.133862 0.13405 0.134237 0.134425
0.134613 0.1348 0.134988 0.135175 0.135363 0.13555 0.135737 0.135925 0.136112 0.1363
0.136487 0.136675 0.136863 0.13705 0.137238 0.137425 0.137613 0.1378 0.137987 0.138175
0.138362 0.13855 0.138737 0.138925 0.139113 0.1393 0.139488 0.139675 0.139862 0.14005
0.140237 0.140425 0.140612 0.1408 0.140988 0.141175 0.141363 0.14155 0.141738 0.141925
0.142112 0.1423 0.142487 0.142675 0.142862 0.14305 0.143238 0.143425 0.143613 0.1438
0.143988 0.144175 0.144362 0.14455 0.144737 0.144925 0.145112 0.1453 0.145488 0.145675
0.145863 0.14605 0.146237 0.146425 0.146612 0.1468 0.146987 0.147175 0.147363 0.14755
0.147738 0.147925 0.148113 0.1483 0.148487 0.148675 0.148862 0.14905 0.149237 0.149425
0.1498 0.150175 0.15055 0.150925 0.1513 0.15205 0.1528 0.15355 0.1543 0.15505
0.15655 0.15805 0.15955 0.16105 0.16255 0.16405 0.16555 0.16705 0.16855 0.17005
0.17305 0.17605 0.17905 0.18205 0.18505 0.19105 0.19705 0.20305 0.20905 0.21505
0.22105 0.22705 0.23305 0.23905 0.24505 0.25105 0.25705 0.26305 0.26905 0.27505
0.28105 0.28705 0.29305 0.29905 0.30505 0.31105 0.31705 0.32305 0.32905 0.33505
0.34105 0.34705 0.35305 0.35905 0.36505 0.37105 0.37705 0.38305 0.38905 0.39505
0.40105 0.40705 0.41305 0.41905 0.42505 0 7.25e-05 0.000145 0.0002175 0.00029
0.0003625 0.00055 0.0007375 0.000925 0.0011125 0.0013 0.0014875 0.001675 0.0018625 0.00205
0.0022375 0.002425 0.0026125 0.0028 0.0029875 0.003175 0.0033625 0.00355 0.0037375 0.003925
0.0041125 0.0043 0.0044875 0.004675 0.0048625 0.00505 0.0052375 0.005425 0.0056125 0.0058
0.0059875 0.006175 0.0063625 0.00655 0.0067375 0.006925 0.0071125 0.0073 0.0074875 0.007675
0.0078625 0.00805 0.0082375 0.008425 0.0086125 0.0088 0.0089875 0.009175 0.0093625 0.00955
0.0097375 0.009925 0.0101125 0.0103 0.0104875 0.010675 0.0108625 0.01105 0.0112375 0.011425
0.0116125 0.0118 0.0119875 0.012175 0.0123625 0.01255 0.0127375 0.012925 0.0131125 0.0133
0.0134875 0.013675 0.0138625 0.01405 0.0142375 0.014425 0.0146125 0.0148 0.0149875 0.015175
0.0153625 0.01555 0.0157375 0.015925 0.0161125 0.0163 0.0164875 0.016675 0.0168625 0.01705
0.0172375 0.017425 0.0176125 0.0178 0.0179875 0.018175 0.0183625 0.01855 0.0187375 0.018925
0.0191125 0.0193 0.0194875 0.019675 0.0198625 0.02005 0.0202375 0.020425 0.0206125 0.0208
0.0209875 0.021175 0.0213625 0.02155 0.0217375 0.021925 0.0221125 0.0223 0.0224875 0.022675
0.0228625 0.02305 0.0232375 0.023425 0.0236125 0.0238 0.0239875 0.024175 0.0243625 0.02455
0.0247375 0.024925 0.0251125 0.0253 0.0254875 0.025675 0.0258625 0.02605 0.0262375 0.026425
0.0266125 0.0268 0.0269875 0.027175 0.0273625 0.02755 0.0277375 0.027925 0.0281125 0.0283
0.0284875 0.028675 0.0288625 0.02905 0.0292375 0.029425 0.0296125 0.0298 0.0299875 0.030175
0.0303625 0.03055 0.0307375 0.030925 0.0311125 0.0313 0.0314875 0.031675 0.0318625 0.03205
0.0322375 0.032425 0.0326125 0.0328 0.0329875 0.033175 0.0333625 0.03355 0.0337375 0.033925
0.0341125 0.0343 0.0344875 0.034675 0.0348625 0.03505 0.0352375 0.035425 0.0356125 0.0358
0.0359875 0.036175 0.0363625 0.03655 0.0367375 0.036925 0.0371125 0.0373 0.0374875 0.037675
0.0378625 0.03805 0.0382375 0.038425 0.0386125 0.0388 0.0389875 0.039175 0.0393625 0.03955
0.0397375 0.039925 0.0401125 0.0403 0.0404876 0.0406751 0.0408626 0.0410501 0.0412377 0.0414252
0.0416127 0.0418003 0.0419878 0.0421753 0.0423629 0.0425504 0.042738 0.0429256 0.0431132 0.0433007
0.0434883 0.0436767 0.0438651 0.0440535 0.0442419 0.0444303 0.0444319 0.0444335 0.0444351 0.0444367
0.0444383 0.0446234 0.0448085 0.0449936 0.0451787 0.0453638 0.0455509 0.0457381 0.0459252 0.0461124
0.0462996 0.0464879 0.0466762 0.0468645 0.0470527 0.047241 0.047335 0.0474291 0.0475231 0.0476171
0.0477111 0.047811 0.047911 0.0480109 0.0481109 0.0482108 0.048276 0.0483411 0.0484063 0.0484714
0.0485366 0.0485605 0.048588 0.0486205 0.0486602 0.0487112 0.0487472 0.0487922 0.0488521 0.0489421
0.0491216 0 7.25e-05 0.000145 0.0002175 0.00029 0.0003625 0.00055 0.0007375 0.000925
0.0011125 0.0013 0.0014875 0.001675 0.0018625 0.00205 0.0022375 0.002425 0.0026125 0.0028
0.0029875 0.003175 0.0033625 0.00355 0.0037375 0.003925 0.0041125 0.0043 0.0044875 0.004675
0.0048625 0.00505 0.0052375 0.005425 0.0056125 0.0058 0.0059875 0.006175 0.0063625 0.00655
0.0067375 0.006925 0.0071125 0.0073 0.0074875 0.007675 0.0078625 0.00805 0.0082375 0.008425
0.0086125 0.0088 0.0089875 0.009175 0.0093625 0.00955 0.0097375 0.009925 0.0101125 0.0103
0.0104875 0.010675 0.0108625 0.01105 0.0112375 0.011425 0.0116125 0.0118 0.0119875 0.012175
0.0123625 0.01255 0.0127375 0.012925 0.0131125 0.0133 0.0134875 0.013675 0.0138625 0.01405
0.0142375 0.014425 0.0146125 0.0148 0.0149875 0.015175 0.0153625 0.01555 0.0157375 0.015925
0.0161125 0.0163 0.0164875 0.016675 0.0168625 0.01705 0.0172375 0.017425 0.0176125 0.0178
0.0179875 0.018175 0.0183625 0.01855 0.0187375 0.018925 0.0191125 0.0193 0.0194875 0.019675
0.0198625 0.02005 0.0202375 0.020425 0.0206125 0.0208 0.0209875 0.021175 0.0213625 0.02155
0.0217375 0.021925 0.0221125 0.0223 0.0224875 0.022675 0.0228625 0.02305 0.0232375 0.023425
0.0236125 0.0238 0.0239875 0.024175 0.0243625 0.02455 0.0247375 0.024925 0.0251125 0.0253
0.0254875 0.025675 0.0258625 0.02605 0.0262375 0.026425 0.0266125 0.0268 0.0269875 0.027175
0.0273625 0.02755 0.0277375 0.027925 0.0281125 0.0283 0.0284875 0.028675 0.0288625 0.02905
0.0292375 0.029425 0.0296125 0.0298 0.0299875 0.030175 0.0303625 0.03055 0.0307375 0.030925
0.0311125 0.0313 0.0314875 0.031675 0.0318625 0.03205 0.0322375 0.032425 0.0326125 0.0328
0.0329875 0.033175 0.0333625 0.03355 0.0337375 0.033925 0.0341125 0.0343 0.0344875 0.034675
0.0348625 0.03505 0.0352375 0.035425 0.0356125 0.0358 0.0359875 0.036175 0.0363625 0.03655
0.0367375 0.036925 0.0371125 0.0373 0.0374875 0.037675 0.0378625 0.03805 0.0382375 0.0384249
0.0386124 0.0387999 0.0389874 0.039175 0.0393626 0.0395502 0.0397377 0.0399257 0.0401136 0.0403016
0.0404895 0.0406774 0.0408643 0.0410512 0.0412382 0.0414251 0.041612 0.0417995 0.041987 0.0421746
0.0423621 0.0425496 0.0427381 0.0429266 0.0431151 0.0433036 0.0434921 0.0435451 0.0435981 0.0436511
0.0437041 0.0437571 0.0438948 0.0440325 0.0441702 0.044308 0.0444457 0.0445413 0.044637 0.0447327
0.0448283 0.044924 0.0449471 0.0449701 0.0449932 0.0450163 0.0450394 0.0451247 0.04521 0.0452953
0.0453806 0.0454659 0.0454722 0.0454785 0.0454849 0.0454912 0.0454975 0.0455098 0.0455252 0.0455457
0.0455764 0.0456378 0 7.25e-05 0.000145 0.0002175 0.00029 0.0003625 0.00055 0.0007375
0.000925 0.0011125 0.0013 0.0014875 0.001675 0.0018625 0.00205 0.0022375 0.002425 0.0026125
0.0028 0.0029875 0.003175 0.0033625 0.00355 0.0037375 0.003925 0.0041125 0.0043 0.0044875
0.004675 0.0048625 0.00505 0.0052375 0.005425 0.0056125 0.0058 0.0059875 0.006175 0.0063625
0.00655 0.0067375 0.006925 0.0071125 0.0073 0.0074875 0.007675 0.0078625 0.00805 0.0082375
0.008425 0.0086125 0.0088 0.0089875 0.009175 0.0093625 0.00955 0.0097375 0.009925 0.0101125
0.0103 0.0104875 0.010675 0.0108625 0.01105 0.0112375 0.011425 0.0116125 0.0118 0.0119875
0.012175 0.0123625 0.01255 0.0127375 0.012925 0.0131125 0.0133 0.0134875 0.013675 0.0138625
0.01405 0.0142375 0.014425 0.0146125 0.0148 0.0149875 0.015175 0.0153625 0.01555 0.0157375
0.015925 0.0161125 0.0163 0.0164875 0.016675 0.0168625 0.01705 0.0172375 0.017425 0.0176125
0.0178 0.0179875 0.018175 0.0183625 0.01855 0.0187375 0.018925 0.0191125 0.0193 0.0194875
0.019675 0.0198625 0.02005 0.0202375 0.020425 0.0206125 0.0208 0.0209875 0.021175 0.0213625
0.02155 0.0217375 0.021925 0.0221125 0.0223 0.0224875 0.022675 0.0228625 0.02305 0.0232375
0.023425 0.0236125 0.0238 0.0239875 0.024175 0.0243625 0.02455 0.0247375 0.024925 0.0251125
0.0253 0.0254875 0.025675 0.0258625 0.02605 0.0262375 0.026425 0.0266125 0.0268 0.0269875
0.027175 0.0273625 0.02755 0.0277375 0.027925 0.0281125 0.0283 0.0284875 0.028675 0.0288625
0.02905 0.0292375 0.029425 0.0296125 0.0298 0.0299875 0.030175 0.0303625 0.03055 0.0307375
0.030925 0.0311125 0.0313 0.0314875 0.031675 0.0318625 0.03205 0.0322375 0.032425 0.0326125
0.0328 0.0329875 0.033175 0.0333625 0.03355 0.0337375 0.033925 0.0341125 0.0343 0.0344875
0.034675 0.0348625 0.03505 0.0352374 0.0354249 0.0356123 0.0357998 0.0359872 0.0361748 0.0363623
0.0365499 0.0367374 0.0369249 0.0371126 0.0373002 0.0374879 0.0376755 0.0378632 0.0380497 0.0382362
0.0384227 0.0386092 0.0387958 0.0389835 0.0391713 0.039359 0.0395468 0.0397346 0.0399239 0.0401132
0.0403025 0.0404918 0.0406811 0.0408734 0.0410658 0.0412581 0.0414505 0.0416428 0.041839 0.0420352
0.0422314 0.0424276 0.0426238 0.0428218 0.0430197 0.0432177 0.0434157 0.0436137 0.0438083 0.0440028
0.0441974 0.044392 0.0445866 0.0446683 0.04475 0.0448318 0.0449135 0.0449952 0.0450062 0.0450199
0.0450381 0.0450655 0.0451203 0 7.25e-05 0.000145 0.0002175 0.00029 0.0003625 0.00055
0.0007375 0.000925 0.0011125 0.0013 0.0014875 0.001675 0.0018625 0.00205 0.0022375 0.002425
0.0026125 0.0028 0.0029875 0.003175 0.0033625 0.00355 0.0037375 0.003925 0.0041125 0.0043
0.0044875 0.004675 0.0048625 0.00505 0.0052375 0.005425 0.0056125 0.0058 0.0059875 0.006175
0.0063625 0.00655 0.0067375 0.006925 0.0071125 0.0073 0.0074875 0.007675 0.0078625 0.00805
0.0082375 0.008425 0.0086125 0.0088 0.0089875 0.009175 0.0093625 0.00955 0.0097375 0.009925
0.0101125 0.0103 0.0104875 0.010675 0.0108625 0.01105 0.0112375 0.011425 0.0116125 0.0118
0.0119875 0.012175 0.0123625 0.01255 0.0127375 0.012925 0.0131125 0.0133 0.0134875 0.013675
0.0138625 0.01405 0.0142375 0.014425 0.0146125 0.0148 0.0149875 0.015175 0.0153625 0.01555
0.0157375 0.015925 0.0161125 0.0163 0.0164875 0.016675 0.0168625 0.01705 0.0172375 0.017425
0.0176125 0.0178 0.0179875 0.018175 0.0183625 0.01855 0.0187375 0.018925 0.0191125 0.0193
0.0194875 0.019675 0.0198625 0.02005 0.0202375 0.020425 0.0206125 0.0208 0.0209875 0.021175
0.0213625 0.02155 0.0217375 0.021925 0.0221125 0.0223 0.0224875 0.022675 0.0228625 0.02305
0.0232375 0.023425 0.0236125 0.0238 0.0239875 0.024175 0.0243625 0.02455 0.0247375 0.024925
0.0251125 0.0253 0.0254875 0.025675 0.0258625 0.02605 0.0262375 0.026425 0.0266125 0.0268
0.0269875 0.027175 0.0273625 0.02755 0.0277375 0.027925 0.0281125 0.0283 0.0284875 0.028675
0.0288625 0.02905 0.0292375 0.029425 0.0296125 0.0298 0.0299875 0.030175 0.0303625 0.03055
0.0307375 0.030925 0.0311125 0.0313 0.0314875 0.031675 0.0318625 0.03205 0.0322375 0.0324249
0.0326124 0.0327998 0.0329872 0.0331747 0.0333619 0.0335492 0.0337364 0.0339237 0.0341109 0.0342988
0.0344866 0.0346744 0.0348622 0.03505 0.0352367 0.0354234 0.0356101 0.0357968 0.0359835 0.0361704
0.0363574 0.0365443 0.0367313 0.0369182 0.0371048 0.0372914 0.037478 0.0376646 0.0378512 0.0380383
0.0382253 0.0384124 0.0385994 0.0387865 0.0389743 0.0391621 0.0393499 0.0395377 0.0397255 0.0399149
0.0401044 0.0402938 0.0404833 0.0406728 0.0408653 0.0410578 0.0412503 0.0414428 0.0416353 0.0418317
0.0420281 0.0422245 0.0424209 0.0426174 0.0428157 0.0430141 0.0432125 0.0434109 0.0436092 0.0438042
0.0439991 0.044194 0.0443889 0.0445838 0.0446661 0.0447484 0.0448307 0.0449129 0.0449952 0.0450062
0.0450199 0.0450381 0.0450655 0.0451203 0 7.25e-05 0.000145 0.0002175 0.00029 0.0003625
0.00055 0.0007375 0.000925 0.0011125 0.0013 0.0014875 0.001675 0.0018625 0.00205 0.0022375
0.002425 0.0026125 0.0028 0.0029875 0.003175 0.0033625 0.00355 0.0037375 0.003925 0.0041125
0.0043 0.0044875 0.004675 0.0048625 0.00505 0.0052375 0.005425 0.0056125 0.0058 0.0059875
0.006175 0.0063625 0.00655 0.0067375 0.006925 0.0071125 0.0073 0.0074875 0.007675 0.0078625
0.00805 0.0082375 0.008425 0.0086125 0.0088 0.0089875 0.009175 0.0093625 0.00955 0.0097375
0.009925 0.0101125 0.0103 0.0104875 0.010675 0.0108625 0.01105 0.0112375 0.011425 0.0116125
0.0118 0.0119875 0.012175 0.0123625 0.01255 0.0127375 0.012925 0.0131125 0.0133 0.0134875
0.013675 0.0138625 0.01405 0.0142375 0.014425 0.0146125 0.0148 0.0149875 0.015175 0.0153625
0.0153727 0.015383 0.0153932 0.0154034 0.0154136 0.0155909 0.0157682 0.0159455 0.0161227 0.0163
0.0164875 0.016675 0.0168625 0.01705 0.0172375 0.017425 0.0176125 0.0178 0.0179875 0.018175
0.0183625 0.01855 0.0187375 0.018925 0.0191125 0.0193 0.0194875 0.019675 0.0198625 0.02005
0.0202375 0.020425 0.0206125 0.0208 0.0209875 0.021175 0.0213625 0.02155 0.0217375 0.021925
0.0221125 0.0223 0.0224875 0.022675 0.0228625 0.02305 0.0232375 0.023425 0.0236125 0.0238
0.0239875 0.024175 0.0243625 0.02455 0.0247375 0.024925 0.0251125 0.0253 0.0254875 0.025675
0.0258625 0.02605 0.0262375 0.026425 0.0266125 0.0268 0.0269875 0.027175 0.0273625 0.02755
0.0277375 0.027925 0.0281125 0.0283 0.0284875 0.028675 0.0288625 0.02905 0.0292375 0.029425
0.0296124 0.0297999 0.0299873 0.0301748 0.0303622 0.030549 0.0307357 0.0309224 0.0311092 0.0312959
0.0314826 0.0316693 0.0318561 0.0320428 0.0322295 0.032417 0.0326045 0.032792 0.0329795 0.0331669
0.0333545 0.033542 0.0337295 0.0339171 0.0341046 0.0342918 0.034479 0.0346662 0.0348535 0.0350407
0.0352276 0.0354145 0.0356015 0.0357884 0.0359753 0.0361622 0.0363491 0.036536 0.0367229 0.0369098
0.0370967 0.0372835 0.0374703 0.0376572 0.037844 0.038031 0.0382179 0.0384049 0.0385918 0.0387787
0.0389658 0.0391529 0.03934 0.0395271 0.0397142 0.0399017 0.0400893 0.0402769 0.0404645 0.040652
0.0408406 0.0410291 0.0412177 0.0414062 0.0415948 0.0417841 0.0419734 0.0421627 0.042352 0.0425413
0.0427295 0.0429177 0.0431059 0.0432941 0.0434823 0.0435201 0.0435579 0.0435958 0.0436336 0.0436714
0.0438148 0.0439582 0.0441015 0.0442449 0.0443883 0.044475 0.0445617 0.0446484 0.0447352 0.0448219