# vtk DataFile Version 2.0
tracks
ASCII
DATASET POLYDATA
POINTS 19533 float
-1.001 1e-07 0.0011 -0.99955 9.85169e-08 0.00110002 -0.9981 9.70308e-08 0.00110004 -0.99665 9.55415e-08
0.00110007 -0.9952 9.40491e-08 0.0011001 -0.99375 9.25537e-08 0.00110014 -0.99 8.86601e-08 0.00110023
-0.98625 8.47826e-08 0.00110033 -0.9825 8.0904e-08 0.00110043 -0.97875 7.70044e-08 0.00110054 -0.975
7.30648e-08 0.00110067 -0.97125 6.90715e-08 0.00110082 -0.9675 6.50906e-08 0.00110097 -0.96375 6.11083e-08
0.00110112 -0.96 5.71024e-08 0.00110127 -0.95625 5.30516e-08 0.00110143 -0.9525 4.8951e-08 0.0011016
-0.94875 4.48538e-08 0.00110177 -0.945 4.07553e-08 0.00110194 -0.94125 3.6632e-08 0.00110211 -0.9375
3.24619e-08 0.00110229 -0.93375 2.82389e-08 0.00110246 -0.93 2.40207e-08 0.00110264 -0.92625 1.98009e-08
0.00110282 -0.9225 1.55535e-08 0.00110299 -0.91875 1.12539e-08 0.00110318 -0.916812 9.0031e-09 0.00110327
-0.914873 6.75305e-09 0.00110337 -0.912935 4.50257e-09 0.00110346 -0.910996 2.25167e-09 0.00110356 -0.909057
1.82244e-17 0.00110365 -0.907246 -2.10717e-09 0.00110374 -0.905434 -4.2287e-09 0.00110383 -0.903623 -6.3646e-09
0.00110392 -0.901811 -8.51486e-09 0.00110401 -0.9 -1.06795e-08 0.0011041 -0.89625 -1.51896e-08 0.0011043
-0.8925 -1.97646e-08 0.00110449 -0.88875 -2.44039e-08 0.00110469 -0.885 -2.90774e-08 0.0011049 -0.88125
-3.37528e-08 0.0011051 -0.8775 -3.84231e-08 0.0011053 -0.87375 -4.31588e-08 0.00110551 -0.87 -4.79529e-08
0.00110572 -0.86625 -5.27785e-08 0.00110594 -0.8625 -5.7606e-08 0.00110615 -0.85875 -6.24233e-08 0.00110637
-0.855 -6.73117e-08 0.00110659 -0.85125 -7.22586e-08 0.00110681 -0.8475 -7.72373e-08 0.00110704 -0.84375
-8.22181e-08 0.00110727 -0.84 -8.71952e-08 0.0011075 -0.83625 -9.22418e-08 0.00110773 -0.8325 -9.73515e-08
0.00110798 -0.82875 -1.02496e-07 0.00110822 -0.825 -1.07642e-07 0.00110846 -0.82125 -1.12766e-07 0.00110871
-0.8175 -1.17985e-07 0.00110896 -0.81375 -1.23271e-07 0.00110921 -0.81 -1.28596e-07 0.00110947 -0.80625
-1.33923e-07 0.00110973 -0.8025 -1.3922e-07 0.00110999 -0.79875 -1.44621e-07 0.00111026 -0.795 -1.50091e-07
0.00111053 -0.79125 -1.556e-07 0.00111081 -0.7875 -1.61111e-07 0.00111109 -0.78375 -1.66616e-07 0.00111137
-0.78 -1.72197e-07 0.00111166 -0.77625 -1.77844e-07 0.00111195 -0.7725 -1.83528e-07 0.00111225 -0.76875
-1.89215e-07 0.00111255 -0.765 -1.94893e-07 0.00111284 -0.76125 -2.00645e-07 0.00111315 -0.7575 -2.06458e-07
0.00111346 -0.75375 -2.12305e-07 0.00111378 -0.75 -2.18156e-07 0.0011141 -0.74625 -2.23949e-07 0.00111442
-0.7425 -2.29864e-07 0.00111475 -0.73875 -2.35837e-07 0.00111509 -0.735 -2.41844e-07 0.00111543 -0.73125
-2.47854e-07 0.00111577 -0.7275 -2.53795e-07 0.00111612 -0.72375 -2.59872e-07 0.00111647 -0.72 -2.66007e-07
0.00111683 -0.71625 -2.72176e-07 0.0011172 -0.7125 -2.78349e-07 0.00111757 -0.70875 -2.8444e-07 0.00111794
-0.705 -2.90679e-07 0.00111832 -0.70125 -2.96976e-07 0.00111871 -0.6975 -3.03307e-07 0.0011191 -0.69375
-3.09642e-07 0.0011195 -0.69 -3.15966e-07 0.00111989 -0.68625 -3.22367e-07 0.0011203 -0.6825 -3.28823e-07
0.00112072 -0.67875 -3.35312e-07 0.00112115 -0.675 -3.41806e-07 0.00112157 -0.67125 -3.48288e-07 0.001122
-0.6675 -3.54843e-07 0.00112244 -0.66375 -3.61446e-07 0.00112289 -0.66 -3.68078e-07 0.00112334 -0.65625
-3.74715e-07 0.0011238 -0.6525 -3.81216e-07 0.00112426 -0.64875 -3.87914e-07 0.00112473 -0.645 -3.94659e-07
0.00112522 -0.64125 -4.01433e-07 0.00112571 -0.6375 -4.08212e-07 0.0011262 -0.63375 -4.14981e-07 0.0011267
-0.63 -4.21826e-07 0.0011272 -0.62625 -4.28717e-07 0.00112772 -0.6225 -4.35639e-07 0.00112825 -0.61875
-4.42566e-07 0.00112878 -0.615 -4.49485e-07 0.00112931 -0.61125 -4.56474e-07 0.00112986 -0.6075 -4.63503e-07
0.00113042 -0.60375 -4.70557e-07 0.00113099 -0.6 -4.77619e-07 0.00113156 -0.59625 -4.84673e-07 0.00113213
-0.5925 -4.91767e-07 0.0011327 -0.58875 -4.98869e-07 0.00113327 -0.585 -5.05995e-07 0.00113385 -0.58125
-5.13158e-07 0.00113444 -0.5775 -5.20092e-07 0.00113506 -0.57375 -5.27322e-07 0.00113567 -0.57 -5.3456e-07
0.00113628 -0.56625 -5.41828e-07 0.00113691 -0.5625 -5.4914e-07 0.00113755 -0.55875 -5.56188e-07 0.00113821
-0.555 -5.63581e-07 0.00113887 -0.55125 -5.70983e-07 0.00113953 -0.5475 -5.78421e-07 0.0011402 -0.54375
-5.85914e-07 0.00114088 -0.54 -5.93455e-07 0.00114159 -0.53625 -6.01047e-07 0.0011423 -0.5325 -6.08649e-07
0.00114301 -0.52875 -6.16292e-07 0.00114372 -0.525 -6.23996e-07 0.00114446 -0.52125 -6.31341e-07 0.00114522
-0.5175 -6.39158e-07 0.00114598 -0.51375 -6.46985e-07 0.00114673 -0.51 -6.54858e-07 0.0011475 -0.50625
-6.62797e-07 0.00114829 -0.5025 -6.70311e-07 0.0011491 -0.49875 -6.78377e-07 0.00114991 -0.495 -6.86456e-07
0.00115072 -0.49125 -6.94584e-07 0.00115154 -0.4875 -7.02786e-07 0.00115238 -0.48375 -7.11068e-07 0.00115324
-0.48 -7.19417e-07 0.0011541 -0.47625 -7.27779e-07 0.00115496 -0.4725 -7.36197e-07 0.00115583 -0.46875
-7.44696e-07 0.00115672 -0.465 -7.53291e-07 0.00115762 -0.46125 -7.61959e-07 0.00115853 -0.4575 -7.70642e-07
0.00115944 -0.45375 -7.79384e-07 0.00116036 -0.45 -7.88211e-07 0.0011613 -0.44625 -7.97146e-07 0.00116225
-0.4425 -8.06162e-07 0.0011632 -0.43875 -8.15194e-07 0.00116416 -0.435 -8.24288e-07 0.00116512 -0.43125
-8.33468e-07 0.00116609 -0.4275 -8.41798e-07 0.00116708 -0.42375 -8.51188e-07 0.00116807 -0.42 -8.60596e-07
0.00116906 -0.41625 -8.70075e-07 0.00117005 -0.4125 -8.79649e-07 0.00117105 -0.40875 -8.88214e-07 0.00117206
-0.405 -8.98032e-07 0.00117307 -0.40125 -9.07871e-07 0.00117408 -0.3975 -9.1779e-07 0.00117509 -0.39375
-9.27816e-07 0.00117609 -0.39 -9.38021e-07 0.0011771 -0.38625 -9.48334e-07 0.0011781 -0.3825 -9.58671e-07
0.00117911 -0.37875 -9.69093e-07 0.00118011 -0.375 -9.79629e-07 0.00118109 -0.37125 -9.90372e-07 0.00118205
-0.3675 -1.00124e-06 0.00118302 -0.36375 -1.01213e-06 0.00118398 -0.36 -1.0231e-06 0.00118492 -0.35625
-1.03418e-06 0.00118583 -0.3525 -1.04353e-06 0.0011867 -0.34875 -1.05497e-06 0.00118756 -0.345 -1.06644e-06
0.00118843 -0.34125 -1.078e-06 0.00118926 -0.3375 -1.08967e-06 0.00119001 -0.33375 -1.10161e-06 0.00119071
-0.33 -1.11369e-06 0.0011914 -0.32625 -1.12581e-06 0.0011921 -0.3225 -1.13802e-06 0.00119272 -0.31875
-1.15033e-06 0.00119324 -0.315 -1.16296e-06 0.00119365 -0.31125 -1.17575e-06 0.00119406 -0.3075 -1.18858e-06
0.00119448 -0.30375 -1.20149e-06 0.00119477 -0.3 -1.21451e-06 0.00119492 -0.29625 -1.22448e-06 0.0011949
-0.2925 -1.23807e-06 0.00119465 -0.28875 -1.25174e-06 0.00119417 -0.285 -1.26547e-06 0.00119351 -0.28125
-1.27923e-06 0.00119286 -0.2775 -1.28925e-06 0.0011922 -0.27375 -1.3035e-06 0.00119121 -0.27 -1.31772e-06
0.00118989 -0.26625 -1.33194e-06 0.00118832 -0.2625 -1.34619e-06 0.00118676 -0.25875 -1.35597e-06 0.0011852
-0.255 -1.3707e-06 0.00118316 -0.25125 -1.38532e-06 0.00118064 -0.2475 -1.39988e-06 0.00117778 -0.24375
-1.41447e-06 0.00117493 -0.24 -1.42957e-06 0.00117208 -0.23625 -1.44461e-06 0.00116861 -0.2325 -1.45942e-06
0.0011645 -0.22875 -1.47408e-06 0.00115998 -0.225 -1.48877e-06 0.00115548 -0.22125 -1.49712e-06 0.001151
-0.2175 -1.51205e-06 0.00114566 -0.21375 -1.52655e-06 0.00113946 -0.21 -1.5408e-06 0.00113275 -0.20625
-1.55505e-06 0.00112609 -0.2025 -1.56197e-06 0.00111947 -0.19875 -1.5767e-06 0.00111165 -0.195 -1.59078e-06
0.00110263 -0.19125 -1.60454e-06 0.00109302 -0.1875 -1.61831e-06 0.00108351 -0.18375 -1.63262e-06 0.0010741
-0.18 -1.64594e-06 0.00106315 -0.17625 -1.65813e-06 0.00105071 -0.1725 -1.66988e-06 0.00103775 -0.16875
-1.68165e-06 0.00102497 -0.165 -1.69422e-06 0.00101236 -0.16125 -1.70522e-06 0.000997977 -0.1575 -1.71463e-06
0.000981849 -0.15375 -1.72365e-06 0.000965484 -0.15 -1.73273e-06 0.000949422 -0.14625 -1.74273e-06 0.000933654
-0.1425 -1.7496e-06 0.000915887 -0.13875 -1.75343e-06 0.000896186 -0.135 -1.75717e-06 0.000876749 -0.13125
-1.76109e-06 0.00085777 -0.1275 -1.75376e-06 0.000839235 -0.12375 -1.75579e-06 0.000818633 -0.12 -1.75557e-06
0.000796376 -0.11625 -1.75568e-06 0.000774761 -0.1125 -1.75611e-06 0.000753768 -0.10875 -1.74509e-06 0.000733373
-0.105 -1.74121e-06 0.000710953 -0.10125 -1.73439e-06 0.000687573 -0.0975 -1.72816e-06 0.000664987 -0.0937499
-1.72247e-06 0.000643166 -0.0899999 -1.71787e-06 0.000622078 -0.0862499 -1.71125e-06 0.000599455 -0.0824999 -1.70438e-06
0.000576771 -0.0787499 -1.69816e-06 0.000554949 -0.0749999 -1.69257e-06 0.000533957 -0.0712499 -1.68793e-06 0.000513758
-0.0674999 -1.6861e-06 0.000493474 -0.0637499 -1.6852e-06 0.000473839 -0.0599999 -1.68477e-06 0.000454972 -0.0562499
-1.68478e-06 0.000436845 -0.0524999 -1.67421e-06 0.000419423 -0.0487498 -1.67228e-06 0.000404345 -0.0449998 -1.67078e-06
0.000389791 -0.0412498 -1.6697e-06 0.000375745 -0.0374998 -1.66902e-06 0.00036219 -0.0337498 -1.66877e-06 0.000349106
-0.0299998 -1.66584e-06 0.000340479 -0.0262498 -1.66321e-06 0.000332056 -0.0224998 -1.66086e-06 0.000323833 -0.0187499
-1.6588e-06 0.000315807 -0.0149999 -1.65682e-06 0.000307972 -0.0112499 -1.65837e-06 0.000304546 -0.0074999 -1.66001e-06
0.000301156 -0.00374991 -1.66174e-06 0.000297802 6.11908e-08 -1.66356e-06 0.000294485 0.00375005 -1.65659e-06 0.000291203
0.00750005 -1.65727e-06 0.00028796 0.01125 -1.65803e-06 0.000284751 0.015 -1.65888e-06 0.000281576 0.01875
-1.6598e-06 0.000278436 0.0225 -1.65848e-06 0.000277398 0.02625 -1.66388e-06 0.000276364 0.03 -1.66931e-06
0.000275335 0.03375 -1.67476e-06 0.000274309 0.0375 -1.68025e-06 0.000273287 0.04125 -1.68027e-06 0.000272797
0.045 -1.6861e-06 0.000272309 0.04875 -1.69194e-06 0.000271821 0.0525 -1.69781e-06 0.000271335 0.05625
-1.7037e-06 0.000270849 0.06 -1.71009e-06 0.000270648 0.06375 -1.71577e-06 0.000270448 0.0675 -1.72146e-06
0.000270248 0.07125 -1.72718e-06 0.000270048 0.075 -1.7329e-06 0.000269848 0.07875 -1.73271e-06 0.000269798
0.0825 -1.73706e-06 0.000269748 0.08625 -1.74142e-06 0.000269698 0.09 -1.74579e-06 0.000269648 0.09375
-1.75017e-06 0.000269598 0.0975 -1.74686e-06 0.000269599 0.10125 -1.74788e-06 0.0002696 0.105 -1.74889e-06
0.000269602 0.10875 -1.74991e-06 0.000269603 0.1125 -1.75093e-06 0.000269605 0.11625 -1.74985e-06 0.000269619
[...]
POINT_DATA 19533
FIELD attributes 3
age 1 19533 float
0 7.30127e-05 0.000146029 0.000219049 0.000292073 0.0003651 0.000553973 0.000742847 0.000931721 0.00112061 0.00130953
0.00149849 0.00168744 0.0018764 0.00206537 0.00225438 0.00244342 0.00263246 0.0028215 0.00301056 0.00319966
0.0033888 0.00357793 0.00376707 0.00395622 0.00414542 0.00424324 0.00434106 0.00443888 0.0045367 0.00463454
0.00472595 0.00481737 0.00490881 0.00500025 0.0050917 0.00528104 0.00547043 0.00565986 0.00584932 0.00603877
0.00622823 0.00641774 0.00660729 0.00679687 0.00698645 0.00717603 0.00736566 0.00755534 0.00774505 0.00793476
0.00812447 0.00831424 0.00850406 0.00869392 0.00888377 0.00907362 0.00926354 0.00945351 0.00964352 0.00983352
0.0100235 0.0102136 0.0104037 0.0105939 0.0107841 0.0109742 0.0111645 0.0113548 0.0115452 0.0117355
0.0119259 0.0121163 0.0123068 0.0124973 0.0126879 0.0128784 0.013069 0.0132597 0.0134505 0.0136412
0.013832 0.0140228 0.0142137 0.0144047 0.0145957 0.0147867 0.0149778 0.0151689 0.0153601 0.0155514
0.0157426 0.0159339 0.0161253 0.0163168 0.0165083 0.0166998 0.0168914 0.0170831 0.0172749 0.0174667
0.0176585 0.0178504 0.0180424 0.0182345 0.0184266 0.0186187 0.0188109 0.0190033 0.0191957 0.0193882
0.0195806 0.0197732 0.019966 0.0201588 0.0203516 0.0205444 0.0207373 0.0209301 0.021123 0.0213161
0.0215094 0.0217026 0.0218959 0.0220892 0.0222828 0.0224765 0.0226702 0.0228639 0.0230577 0.0232517
0.0234459 0.0236401 0.0238343 0.0240287 0.0242232 0.024418 0.0246128 0.0248075 0.0250024 0.0251976
0.0253929 0.0255883 0.0257837 0.0259792 0.026175 0.0263711 0.0265671 0.0267632 0.0269594 0.0271559
0.0273527 0.0275495 0.0277463 0.0279433 0.0281406 0.0283382 0.0285358 0.0287335 0.0289313 0.0291295
0.029328 0.0295266 0.0297251 0.0299239 0.0301231 0.0303226 0.0305221 0.0307217 0.0309215 0.0311217
0.0313224 0.031523 0.0317237 0.0319246 0.032126 0.0323279 0.0325297 0.0327316 0.0329338 0.0331365
0.0333397 0.0335429 0.0337461 0.0339497 0.0341538 0.0343584 0.034563 0.0347677 0.0349727 0.0351783
0.0353844 0.0355906 0.0357968 0.0360034 0.0362105 0.0364183 0.0366266 0.0368356 0.037045 0.0372544
0.0374637 0.0376737 0.0378842 0.0380952 0.0383061 0.0385169 0.0387284 0.0389404 0.0391527 0.039365
0.0395772 0.0397899 0.040003 0.0402164 0.0404296 0.0406427 0.0408562 0.0410699 0.0412837 0.0414974
0.0417109 0.0419244 0.0421379 0.0423513 0.0425644 0.0427773 0.0429897 0.0432018 0.0434134 0.0436247
0.0438357 0.0440458 0.0442549 0.0444635 0.0446718 0.0448796 0.0450859 0.0452908 0.0454951 0.045699
0.0459026 0.0461039 0.0463034 0.0465025 0.0467013 0.0468997 0.0470954 0.0472892 0.0474828 0.0476762
0.0478694 0.0480592 0.0482477 0.0484361 0.0486245 0.0488129 0.0489976 0.0491818 0.0493661 0.0495506
0.0497352 0.0499164 0.0500978 0.0502795 0.0504613 0.0506434 0.0508233 0.0510034 0.0511837 0.0513642
0.0515449 0.0517248 0.0519048 0.0520849 0.0522651 0.0524453 0.0526256 0.0528061 0.0529865 0.0531671
0.0533478 0.0535284 0.0537091 0.0538899 0.0540706 0.0542517 0.0544328 0.0546138 0.0547949 0.054976
0.0551575 0.0553389 0.0555203 0.0557018 0.0558832 0.056065 0.0562467 0.0564285 0.0566102 0.056792
0.0569741 0.0571561 0.0573382 0.0575202 0.0577023 0.0578846 0.0580669 0.0582493 0.0584316 0.058614
0.0587966 0.0589792 0.0591618 0.0593445 0.0595271 0.05971 0.059893 0.0600759 0.0602588 0.0604418
0.060625 0.0608082 0.0609915 0.0611747 0.061358 0.0615415 0.0617251 0.0619086 0.0620922 0.0622757
0.0624595 0.0626434 0.0628272 0.0630111 0.0631949 0.063379 0.0635631 0.0637472 0.0639314 0.0641155
0.0642999 0.0644842 0.0646686 0.064853 0.0650374 0.065222 0.0654066 0.0655912 0.0657758 0.0659604
0.0661453 0.0663301 0.0665149 0.0666997 0.0668846 0.0670696 0.0672547 0.0674399 0.0676251 0.0678103
0.0679955 0.0681808 0.0683661 0.0685515 0.0687368 0.0689221 0.0691076 0.0692931 0.0694785 0.069664
0.0698495 0.070035 0.0702206 0.0704062 0.0705917 0.0707773 0.070963 0.0711487 0.0713343 0.07152
0.0717057 0.0718914 0.0720772 0.0722629 0.0724487 0.0726344 0.0728202 0.073006 0.0731918 0.0733776
0.0735634 0.0737493 0.0739351 0.074121 0.0743068 0.0744927 0.0746785 0.0748644 0.0750503 0.0752361
0.075422 0.0756078 0.0757937 0.0759796 0.0761654 0.0763513 0.0765371 0.076723 0.0769088 0.0770946
0.0772805 0.0774663 0.0776521 0.0778379 0.0780237 0.0782095 0.0783952 0.078581 0.0787667 0.0789525
0.0791382 0.079324 0.0795097 0.0796954 0.0798811 0.0800668 0.0802525 0.0804382 0.0806239 0.0808096
0.0809953 0.081181 0.0813667 0.0815524 0.0817381 0.0819238 0.0821096 0.0822953 0.082481 0.0826667
0.0828524 0.0830382 0.0832239 0.0834097 0.0835954 0.0837812 0.083967 0.0841528 0.0843386 0.0845244
0.0847103 0.0848961 0.085082 0.0852679 0.0854537 0.0855162 0.0855787 0.0856411 0.0857036 0.0857662
0.0858896 0.0860131 0.0861365 0.0862599 0.0863834 0.0865694 0.0867554 0.0869414 0.0871274 0.0873133
0.0874994 0.0876855 0.0878715 0.0880575 0.0882436 0.0884297 0.0886158 0.0888019 0.088988 0.0891741
0.0893603 0.0895464 0.0897326 0.0899187 0.0901049 0.0902911 0.0904773 0.0906635 0.0908497 0.0910358
0.0912221 0.0914083 0.0915945 0.0917808 0.091967 0.0921533 0.0923395 0.0925258 0.0927121 0.0928983
0.0930846 0.0932709 0.0934572 0.0936435 0.0938298 0.0940161 0.0942025 0.0943888 0.0945751 0.0947615
0.0949478 0.0951342 0.0953206 0.0955069 0.0956933 0.0958797 0.0960661 0.0962525 0.0964389 0.0966253
0.0968117 0.0969982 0.0971847 0.0973712 0.0975577 0.0977442 0.0979307 0.0981173 0.0983038 0.0984904
0.0986769 0.0988635 0.0990501 0.0992367 0.0994233 0.0996099 0.0997964 0.099983 0.10017 0.100356
0.100543 0.100729 0.100916 0.101102 0.101289 0.101475 0.101662 0.101848 0.102035 0.102221
0.102408 0.102594 0.102781 0.102968 0.103154 0.103341 0.103528 0.103714 0.103901 0.104088
0.104275 0.104462 0.104649 0.104837 0.105024 0.105211 0.105399 0.105586 0.105774 0.105962
0.106149 0.106338 0.106526 0.106714 0.106902 0.107091 0.107279 0.107468 0.107657 0.107846
0.108035 0.108224 0.108414 0.108604 0.108793 0.108983 0.109173 0.109363 0.109553 0.109743
0.109933 0.110124 0.110315 0.110505 0.110696 0.110887 0.111078 0.111269 0.11146 0.111651
0.111842 0.112033 0.112224 0.112415 0.112606 0.112797 0.112988 0.11318 0.113371 0.113562
0.113754 0.113945 0.114137 0.114328 0.11452 0.114711 0.114903 0.115094 0.115286 0.115477
0.115669 0.115861 0.116052 0.116244 0.116435 0.116627 0.116818 0.11701 0.117202 0.117393
0.117585 0.117776 0.117968 0.11816 0.118351 0.118543 0.118735 0.118926 0.119118 0.119309
0.119501 0.119693 0.119884 0.120076 0.120267 0.120459 0.120651 0.120842 0.121034 0.121226
0.121417 0.121609 0.121801 0.121992 0.122184 0.122376 0.122567 0.122759 0.122951 0.123142
0.123334 0.123526 0.123717 0.123909 0.124101 0.124292 0.124484 0.124676 0.124867 0.125059
0.125251 0.125442 0.125634 0.125826 0.126017 0.126209 0.126401 0.126592 0.126784 0.126976
0.127167 0.127359 0.127551 0.127743 0.127934 0.128126 0.128318 0.128509 0.128701 0.128893
0.129084 0.129276 0.129467 0.129659 0.12985 0.130042 0.130233 0.130425 0.130616 0.130808
0.130999 0.13119 0.131382 0.131573 0.131764 0.131955 0.132146 0.132338 0.132529 0.13272
0.132911 0.133102 0.133293 0.133484 0.133675 0.133865 0.134056 0.134247 0.134438 0.134628
0.134819 0.13501 0.1352 0.135391 0.135581 0.135772 0.135962 0.136152 0.136343 0.136533
0.136723 0.136913 0.137103 0.137294 0.137484 0.137674 0.137864 0.138054 0.138244 0.138433
0.138623 0.138813 0.139003 0.139193 0.139382 0.139572 0.139761 0.139951 0.140141 0.14033
0.140519 0.140709 0.140898 0.141088 0.141277 0.141466 0.141656 0.141845 0.142034 0.142223
0.142412 0.142602 0.142791 0.14298 0.143169 0.143358 0.143547 0.143736 0.143925 0.144114
0.144303 0.144492 0.144681 0.144869 0.145058 0.145247 0.145436 0.145625 0.145813 0.146002
0.146191 0.146379 0.146568 0.146757 0.146945 0.147134 0.147322 0.147511 0.147699 0.147888
0.148076 0.148265 0.148453 0.148642 0.14883 0.149018 0.149207 0.149395 0.149584 0.149772
0.14996 0.150149 0.150337 0.150525 0.150714 0.150902 0.15109 0.151278 0.151467 0.151655
0.152031 0.152407 0.152783 0.153159 0.153535 0.154286 0.155037 0.155788 0.156538 0.157289
0.15879 0.16029 0.161791 0.163291 0.164792 0.166292 0.167792 0.169293 0.170793 0.172293
0.175294 0.178294 0.181294 0.184294 0.187295 0.193295 0.199295 0.205295 0.211295 0.217295
0.223295 0.229295 0.235296 0.241296 0.247296 0.253296 0.259296 0.265296 0.271296 0.277296
0.283296 0.289296 0.295296 0.301296 0.307296 0.313296 0.319296 0.325296 0.331296 0.337296
0.343296 0.349296 0.355297 0.361297 0.367297 0.373297 0.379297 0.385297 0.391297 0.397297
0.403297 0.403396 0 7.36824e-05 0.000147369 0.000221059 0.000294753 0.000368451 0.000559062 0.000749707
0.000940385 0.0011311 0.00132184 0.0014751 0.00162838 0.00178168 0.00193501 0.00208215 0.00212094 0.00215973
0.00219853 0.00223732 0.00227612 0.00246708 0.00265807 0.0028491 0.00304017 0.00323128 0.00342242 0.00361361
0.00380483 0.0039961 0.00418741 0.00437875 0.00457014 0.00476158 0.00495305 0.00514457 0.00533614 0.00552775
0.0057194 0.00591111 0.00610286 0.00629465 0.0064865 0.00667839 0.00687034 0.00706233 0.00725438 0.00744648
0.00763863 0.00783083 0.00802309 0.00821541 0.00840778 0.00860021 0.00879269 0.00898524 0.00917784 0.0093705
0.00956323 0.00975601 0.00994886 0.0101418 0.0103348 0.0105278 0.0107209 0.0109141 0.0111073 0.0113007
0.0114941 0.0116875 0.0118811 0.0120747 0.0122684 0.0124621 0.012656 0.0128499 0.0130439 0.013238
0.0134321 0.0136264 0.0138207 0.0140152 0.0142097 0.0144043 0.014599 0.0147938 0.0149886 0.0151836
0.0153787 0.0155739 0.0157692 0.0159646 0.01616 0.0163556 0.0165514 0.0167472 0.0169431 0.0171391
0.0173353 0.0175316 0.017728 0.0179245 0.0181211 0.0183179 0.0185148 0.0187118 0.018909 0.0191063
0.0193037 0.0195013 0.019699 0.0198969 0.0200949 0.0202931 0.0204914 0.0206899 0.0208885 0.0210874
0.0212863 0.0214855 0.0216848 0.0218843 0.0220839 0.0222838 0.0224838 0.0226841 0.0228845 0.0230851
0.0232859 0.023487 0.0236882 0.0238897 0.0240913 0.0242932 0.0244953 0.0246977 0.0249003 0.0251031
0.0253062 0.0255095 0.0257131 0.0259169 0.026121 0.0263254 0.0265301 0.026735 0.0269402 0.0271458
0.0273516 0.0275578 0.0277642 0.027971 0.0281781 0.0283856 0.0285934 0.0288015 0.02901 0.0292189
0.0294282 0.0296378 0.0298478 0.0300583 0.0302691 0.0304804 0.0306921 0.0309042 0.0311168 0.0313299
0.0315434 0.0317574 0.031972 0.0321869 0.0324025 0.0326186 0.0328352 0.0330524 0.0332701 0.0334884
0.0337073 0.0339269 0.034147 0.0343678 0.0345893 0.0348115 0.0350343 0.0352579 0.0354821 0.0357071
0.0359329 0.0361594 0.0363867 0.0366149 0.0368439 0.0370738 0.0373045 0.0375362 0.0377687 0.0380022
0.0382366 0.0384721 0.0387085 0.038946 0.0391845 0.0394242 0.0396649 0.0399068 0.0401497 0.0403938
0.0406391 0.0408855 0.0411333 0.0413822 0.0416325 0.0418841 0.0421369 0.0423912 0.0426466 0.0429032
0.0431609 0.04342 0.0436807 0.0439427 0.0442058 0.0444701 0.0447354 0.0450027 0.0452704 0.0455387
0.0458076 0.0460769 0.0463487 0.0464756 0.0466025 0.0467293 0.0468561 0.0469358 0.0470899 0.0472439
0.0473977 0.0475512 0.0477059 0.0479766 0.0482456 0.0485128 0.048778 0.0490464 0.0491924 0.0493372
0.0494809 0.0496234 0.0497333 0.0498539 0.0499736 0.0500925 0.0502107 0.0503291 0.0505765 0.0508187
0.051056 0.0512885 0.0515176 0.051533 0.0515484 0.0515638 0.0515791 0.0515944 0.0518011 0.0520031
0.0522008 0.0523942 0.0525816 0.0526929 0.0528025 0.0529105 0.0530171 0.0531509 0.0532253 0.053299
0.0533721 0.0534446 0.0535159 0.0536902 0.053861 0.0540282 0.0541922 0.0543498 0.0544882 0.054625
0.0547604 0.0548942 0.0551158 0.0551304 0.055145 0.0551595 0.0551741 0.0551906 0.0553222 0.0554532
0.0555837 0.0557136 0.0558423 0.0559852 0.0561282 0.0562714 0.0564147 0.0565579 0.0567012 0.0568448
0.0569888 0.0571331 0.0572777 0.0574228 0.0575682 0.0577139 0.05786 0.0580065 0.0581533 0.0583004
0.0584479 0.0585956 0.0587437 0.0588921 0.0590409 0.0591899 0.0593392 0.0594889 0.0596389 0.0597891
0.0599397 0.0600905 0.0602417 0.0603932 0.060545 0.060697 0.0608495 0.0610022 0.0611552 0.0613086
0.0614622 0.0616162 0.0617706 0.0619253 0.0620803 0.0622357 0.0623914 0.0625475 0.0627039 0.0628606
0.0630177 0.0631752 0.063333 0.0634912 0.0636497 0.0638085 0.0639677 0.0641273 0.0642872 0.0644475
0.0646081 0.064769 0.0649302 0.0650919 0.0652538 0.065416 0.0655786 0.0657415 0.0659047 0.0660683
0.0662321 0.0663962 0.0665606 0.0667253 0.0668903 0.0670556 0.0672212 0.067387 0.0675531 0.0677195
0.0678861 0.0680529 0.0682201 0.0683874 0.068555 0.0687229 0.068891 0.0690592 0.0692278 0.0693965
0.0695654 0.0697345 0.0699038 0.0700734 0.0702431 0.070413 0.0705831 0.0707534 0.0709238 0.0710944
0.0712652 0.0714361 0.0716072 0.0717784 0.0719498 0.0721214 0.0722931 0.0724649 0.0726369 0.0728089
0.0729811 0.0731534 0.0733258 0.0734984 0.073671 0.0738438 0.0740166 0.0741896 0.0743626 0.0745357
0.0747088 0.0748821 0.0750554 0.0752288 0.0754022 0.0755756 0.0757492 0.0759227 0.0760963 0.0762699
0.0764435 0.0766171 0.0767907 0.0769643 0.0771379 0.0773115 0.0774851 0.0776587 0.0778323 0.0780058
0.0781792 0.0783526 0.078526 0.0786993 0.0788726 0.0790459 0.0792191 0.0793922 0.0795653 0.0797384
0.0799113 0.0800843 0.0802571 0.08043 0.0806028 0.0807757 0.0809485 0.0811213 0.081294 0.0814668
0.0816395 0.0818123 0.0819852 0.082158 0.0823309 0.0825039 0.0826769 0.08285 0.0830231 0.0831963
0.0833696 0.083543 0.0837165 0.08389 0.0840637 0.0842375 0.0844114 0.0845854 0.0847594 0.0849336
0.0851079 0.0852823 0.0854568 0.0856314 0.0858062 0.0859811 0.0861561 0.0863312 0.086442 0.0865528
0.0866637 0.0867746 0.0868677 0.0869358 0.0870039 0.087072 0.0871401 0.0872083 0.087384 0.0875599
0.0877359 0.0879119 0.0880881 0.0882643 0.0884407 0.0886171 0.0887936 0.0889703 0.089147 0.0893238
0.0895008 0.0896778 0.0898549 0.0900321 0.0902093 0.0903867 0.0905641 0.0907416 0.0909192 0.0910969
0.0912747 0.0914525 0.0916305 0.0918085 0.0919865 0.0921646 0.0923428 0.0925211 0.0926995 0.0928779
0.0930565 0.0932351 0.0934138 0.0935925 0.0937713 0.0939502 0.0941292 0.0943082 0.0944874 0.0946666
0.0948459 0.0950253 0.0952048 0.0953844 0.0955641 0.0957438 0.0959236 0.0961036 0.0962836 0.0964638
0.0966441 0.0968245 0.0970051 0.0971858 0.0973666 0.0975475 0.0977286 0.0979099 0.0980918 0.0982738
0.098456 0.0986382 0.0988206 0.0990022 0.0991836 0.0993651 0.0995464 0.0997278 0.0999093 0.100091
0.100272 0.100453 0.100634 0.100815 0.100996 0.101177 0.101358 0.101539 0.101721 0.101902
0.102084 0.102265 0.102447 0.10263 0.102812 0.102995 0.103179 0.103363 0.103548 0.103734
0.10392 0.104107 0.104296 0.104485 0.104675 0.104866 0.105058 0.105251 0.105446 0.105642
0.10584 0.106039 0.106239 0.106441 0.106645 0.10685 0.107057 0.107265 0.107476 0.107688
0.107902 0.108119 0.108337 0.108557 0.108778 0.109002 0.109227 0.109455 0.109684 0.109916
0.11015 0.110385 0.110623 0.110862 0.111103 0.111347 0.111592 0.111839 0.112088 0.112338
0.112591 0.112846 0.113102 0.11336 0.113619 0.113881 0.114144 0.114408 0.114675 0.114943
0.115212 0.115483 0.115756 0.11603 0.116305 0.116582 0.11686 0.11714 0.117421 0.117703
0.117986 0.118271 0.118557 0.118844 0.119132 0.119421 0.119712 0.120003 0.120295 0.120588
0.120882 0.121176 0.121472 0.121768 0.122066 0.122364 0.122662 0.122961 0.123261 0.123561
0.123861 0.124161 0.124462 0.124764 0.125066 0.125369 0.125672 0.125975 0.126277 0.12658
0.126882 0.127184 0.127487 0.12779 0.128093 0.128396 0.128699 0.129002 0.129305 0.129607
0.129909 0.13021 0.130512 0.130749 0.130985 0.131221 0.131456 0.131675 0.131744 0.131813
0.131882 0.131951 0.132019 0.13232 0.13262 0.132919 0.133217 0.133515 0.133812 0.134108
0.134404 0.134698 0.134992 0.135286 0.13558 0.135873 0.136165 0.136457 0.136747 0.137037
0.137326 0.137614 0.137902 0.138189 0.138477 0.138764 0.139052 0.139338 0.139624 0.139908
0.140193 0.140477 0.140761 0.141045 0.141328 0.141612 0.141895 0.142179 0.142461 0.142744
0.143026 0.143308 0.14359 0.143624 0.143658 0.143692 0.143726 0.14376 0.144008 0.144255
0.144501 0.144747 0.144993 0.145271 0.14555 0.145828 0.146106 0.146383 0.146659 0.146935
0.14721 0.147485 0.147759 0.148032 0.148306 0.14858 0.148853 0.149125 0.149396 0.149668
0.149938 0.150209 0.150479 0.150748 0.151018 0.151287 0.151556 0.151825 0.152092 0.152359
0.152626 0.152893 0.153159 0.153425 0.15369 0.153956 0.154221 0.154486 0.15475 0.155013
0.155277 0.155539 0.155802 0.156064 0.156325 0.156587 0.156848 0.157109 0.157368 0.157628
0.157887 0.158146 0.158404 0.158661 0.158919 0.159176 0.159432 0.159688 0.159943 0.160198
0.160452 0.160706 0.16096 0.161212 0.161465 0.161717 0.161968 0.162219 0.162469 0.162719
0.162968 0.163216 0.163465 0.163712 0.163959 0.164205 0.164451 0.164696 0.164807 0.164918
0.165029 0.165139 0.16526 0.165391 0.165522 0.165653 0.165784 0.165914 0.166153 0.166395
0.166636 0.166877 0.167117 0.167347 0.167585 0.167821 0.168056 0.16829 0.168514 0.168746
0.168976 0.169205 0.169433 0.16987 0.170308 0.170742 0.171165 0.171576 0.172368 0.17316
0.17395 0.174737 0.175521 0.177049 0.178568 0.180086 0.181603 0.183121 0.18463 0.186144
0.187658 0.189172 0.190685 0.193697 0.196712 0.199726 0.202738 0.205749 0.211755 0.217763
0.22377 0.229777 0.235784 0.241785 0.247789 0.253794 0.259798 0.265802 0.271803 0.277806
0.28381 0.289813 0.295816 0.301817 0.30782 0.313823 0.319825 0.325828 0.331829 0.337831
0.343834 0.349836 0.355838 0.361839 0.367841 0.373843 0.379845 0.385847 0.391848 0.397849
0.403851 0.409853 0.415855 0.421855 0.426778 0 7.36585e-05 0.000147322 0.000220989 0.000294662
0.000368339 0.000558895 0.000749484 0.000940106 0.00113076 0.00132145 0.00148083 0.00164024 0.00179968 0.00195914
0.00211161 0.00214437 0.00217713 0.00220989 0.00224265 0.00227542 0.00246631 0.00265724 0.00284821 0.00303921
0.00323025 0.00342133 0.00361244 0.0038036 0.00399479 0.00418603 0.0043773 0.00456862 0.00475997 0.00495137
0.00514282 0.0053343 0.00552583 0.00571741 0.00590903 0.00610069 0.0062924 0.00648416 0.00667597 0.00686783
0.00705973 0.00725169 0.00744369 0.00763575 0.00782786 0.00802002 0.00821224 0.00840451 0.00859683 0.00878922
0.00898165 0.00917415 0.0093667 0.00955932 0.00975199 0.00994473 0.0101375 0.0103304 0.0105233 0.0107163
0.0109094 0.0111025 0.0112957 0.0114889 0.0116823 0.0118757 0.0120691 0.0122627 0.0124563 0.01265
0.0128438 0.0130376 0.0132316 0.0134256 0.0136197 0.0138139 0.0140081 0.0142025 0.0143969 0.0145914
0.014786 0.0149808 0.0151756 0.0153705 0.0155654 0.0157605 0.0159557 0.016151 0.0163464 0.0165419
0.0167375 0.0169333 0.0171291 0.017325 0.0175211 0.0177172 0.0179135 0.0181099 0.0183065 0.0185031
0.0186999 0.0188968 0.0190939 0.0192911 0.0194884 0.0196858 0.0198834 0.0200812 0.0202791 0.0204771
0.0206753 0.0208737 0.0210722 0.0212708 0.0214697 0.0216687 0.0218678 0.0220672 0.0222667 0.0224664
0.0226663 0.0228664 0.0230667 0.0232671 0.0234678 0.0236687 0.0238697 0.024071 0.0242726 0.0244743
0.0246763 0.0248784 0.0250809 0.0252835 0.0254865 0.0256896 0.0258931 0.0260967 0.0263007 0.0265049
0.0267095 0.0269143 0.0271194 0.0273248 0.0275305 0.0277365 0.0279428 0.0281495 0.0283565 0.0285639
0.0287716 0.0289797 0.0291881 0.0293969 0.0296062 0.0298158 0.0298588 0.0299017 0.0299447 0.0299877
0.0300297 0.0301973 0.0303652 0.0305334 0.0307019 0.0308707 0.0310829 0.0312956 0.0315089 0.0317226
0.0319369 0.0321516 0.032367 0.0325829 0.0327994 0.0330165 0.0332341 0.0334525 0.0336715 0.0338912
0.0341115 0.0343326 0.0345544 0.034777 0.0350004 0.0352246 0.0354496 0.0356754 0.0359022 0.03613
0.0363586 0.0365882 0.036819 0.0370508 0.0372837 0.0375178 0.0377529 0.0379893 0.0382271 0.0384662
0.0387066 0.0389484 0.0391919 0.039437 0.0396837 0.0399321 0.0401821 0.040434 0.0406879 0.0409439
0.0412019 0.0414619 0.0417245 0.0419896 0.0422574 0.0425277 0.0428013 0.0430779 0.0433576 0.0436407
0.0439275 0.0442171 0.0445108 0.0448088 0.0451109 0.0454186 0.0457284 0.0460428 0.0463618 0.0466854
0.0470192 0.0471767 0.0473355 0.0474954 0.0476562 0.0477336 0.0479391 0.048146 0.0483542 0.0485636
0.0487813 0.0490823 0.0493854 0.0496901 0.0499939 0.0500843 0.0502033 0.050322 0.0504404 0.0505584
0.050681 0.0508782 0.0510734 0.0512663 0.051457 0.0515808 0.0517848 0.0519852 0.0521821 0.0523755
0.0525804 0.0526072 0.052634 0.0526606 0.0526872 0.0527129 0.0529136 0.0531086 0.0532985 0.0534837