# vtk DataFile Version 2.0
tracks
ASCII
DATASET POLYDATA
POINTS 19719 float
-1.001 1e-07 0.0011 -0.99955 9.95993e-08 0.00110002 -0.9981 9.91963e-08 0.00110004 -0.99665 9.87913e-08
0.00110007 -0.9952 9.8384e-08 0.0011001 -0.99375 9.79745e-08 0.00110014 -0.99 9.68908e-08 0.00110023
-0.98625 9.58251e-08 0.00110033 -0.9825 9.47591e-08 0.00110043 -0.97875 9.36841e-08 0.00110054 -0.975
9.25919e-08 0.00110067 -0.97125 9.14652e-08 0.00110082 -0.9675 9.03554e-08 0.00110097 -0.96375 8.92453e-08
0.00110112 -0.96 8.81267e-08 0.00110127 -0.95625 8.69916e-08 0.00110143 -0.9525 8.58323e-08 0.0011016
-0.94875 8.46806e-08 0.00110177 -0.945 8.35286e-08 0.00110194 -0.94125 8.23613e-08 0.00110211 -0.9375
8.11649e-08 0.00110229 -0.93375 7.99239e-08 0.00110246 -0.93 7.86982e-08 0.00110264 -0.92625 7.7472e-08
0.00110282 -0.9225 7.62333e-08 0.001103 -0.91875 7.49706e-08 0.00110318 -0.915 7.36693e-08 0.00110336
-0.91125 7.23825e-08 0.00110354 -0.9075 7.10952e-08 0.00110373 -0.90375 6.98089e-08 0.00110391 -0.9
6.85249e-08 0.0011041 -0.89625 6.72296e-08 0.0011043 -0.8925 6.5963e-08 0.00110449 -0.88875 6.4711e-08
0.00110469 -0.885 6.34665e-08 0.0011049 -0.88125 6.22215e-08 0.0011051 -0.8775 6.09713e-08 0.0011053
-0.87375 5.97303e-08 0.00110551 -0.87 5.84934e-08 0.00110572 -0.86625 5.72584e-08 0.00110594 -0.8625
5.60228e-08 0.00110615 -0.85875 5.47827e-08 0.00110637 -0.855 5.35459e-08 0.00110659 -0.85125 5.2308e-08
0.00110681 -0.8475 5.10693e-08 0.00110704 -0.84375 4.98301e-08 0.00110727 -0.84 4.85793e-08 0.0011075
-0.83625 4.73359e-08 0.00110774 -0.8325 4.60883e-08 0.00110798 -0.82875 4.48383e-08 0.00110822 -0.825
4.35877e-08 0.00110846 -0.82125 4.23336e-08 0.00110871 -0.8175 4.10858e-08 0.00110896 -0.81375 3.98408e-08
0.00110921 -0.81 3.85971e-08 0.00110948 -0.80625 3.73527e-08 0.00110974 -0.8025 3.61054e-08 0.00111
-0.79875 3.48718e-08 0.00111026 -0.795 3.3649e-08 0.00111054 -0.79125 3.24318e-08 0.00111082 -0.7875
3.12139e-08 0.00111109 -0.78375 2.99877e-08 0.00111137 -0.78 2.87762e-08 0.00111166 -0.77625 2.75714e-08
0.00111195 -0.7725 2.63697e-08 0.00111225 -0.76875 2.51675e-08 0.00111255 -0.765 2.3958e-08 0.00111285
-0.76125 2.27565e-08 0.00111315 -0.7575 2.1556e-08 0.00111347 -0.75375 2.03557e-08 0.00111379 -0.75
1.91548e-08 0.00111411 -0.74625 1.79521e-08 0.00111443 -0.7425 1.67446e-08 0.00111476 -0.73875 1.5531e-08
0.00111509 -0.735 1.43138e-08 0.00111544 -0.73125 1.30957e-08 0.00111578 -0.7275 1.18763e-08 0.00111612
-0.72375 1.06481e-08 0.00111648 -0.72 9.4102e-09 0.00111684 -0.71625 8.16664e-09 0.00111721 -0.7125
6.92228e-09 0.00111758 -0.70875 5.67676e-09 0.00111795 -0.705 4.42213e-09 0.00111832 -0.70125 3.15789e-09
0.00111871 -0.6975 1.88792e-09 0.00111911 -0.69375 6.17084e-10 0.00111951 -0.693386 4.93667e-10 0.00111955
-0.693022 3.70186e-10 0.00111958 -0.692658 2.46619e-10 0.00111962 -0.692295 1.22966e-10 0.00111966 -0.691933
1.2087e-17 0.0011197 -0.688546 -1.15245e-09 0.00112006 -0.68516 -2.31233e-09 0.00112043 -0.681773 -3.47967e-09
0.00112082 -0.678387 -4.64975e-09 0.0011212 -0.675 -5.82062e-09 0.00112159 -0.67125 -7.11774e-09 0.00112201
-0.6675 -8.4215e-09 0.00112245 -0.66375 -9.73152e-09 0.0011229 -0.66 -1.10455e-08 0.00112336 -0.65625
-1.23606e-08 0.00112382 -0.6525 -1.3672e-08 0.00112428 -0.64875 -1.49888e-08 0.00112475 -0.645 -1.63059e-08
0.00112523 -0.64125 -1.76238e-08 0.00112573 -0.6375 -1.89428e-08 0.00112622 -0.63375 -2.02621e-08 0.00112671
-0.63 -2.15857e-08 0.00112722 -0.62625 -2.29122e-08 0.00112774 -0.6225 -2.42409e-08 0.00112827 -0.61875
-2.55708e-08 0.0011288 -0.615 -2.69011e-08 0.00112933 -0.61125 -2.82329e-08 0.00112988 -0.6075 -2.95646e-08
0.00113044 -0.60375 -3.08967e-08 0.00113101 -0.6 -3.223e-08 0.00113158 -0.59625 -3.35638e-08 0.00113215
-0.5925 -3.49012e-08 0.00113272 -0.58875 -3.62399e-08 0.00113329 -0.585 -3.75754e-08 0.00113387 -0.58125
-3.89045e-08 0.00113447 -0.5775 -4.0207e-08 0.00113508 -0.57375 -4.15328e-08 0.0011357 -0.57 -4.28601e-08
0.00113631 -0.56625 -4.41834e-08 0.00113693 -0.5625 -4.54989e-08 0.00113758 -0.55875 -4.67812e-08 0.00113823
-0.555 -4.80929e-08 0.00113889 -0.55125 -4.94061e-08 0.00113955 -0.5475 -5.07185e-08 0.00114022 -0.54375
-5.20283e-08 0.00114091 -0.54 -5.3335e-08 0.00114162 -0.53625 -5.4647e-08 0.00114233 -0.5325 -5.59607e-08
0.00114304 -0.52875 -5.72799e-08 0.00114376 -0.525 -5.86072e-08 0.00114449 -0.52125 -5.99031e-08 0.00114525
-0.5175 -6.12442e-08 0.00114601 -0.51375 -6.25871e-08 0.00114677 -0.51 -6.39319e-08 0.00114754 -0.50625
-6.52786e-08 0.00114833 -0.5025 -6.65789e-08 0.00114913 -0.49875 -6.79345e-08 0.00114994 -0.495 -6.92921e-08
0.00115075 -0.49125 -7.06404e-08 0.00115157 -0.4875 -7.19727e-08 0.00115241 -0.48375 -7.32896e-08 0.00115327
-0.48 -7.4614e-08 0.00115413 -0.47625 -7.59406e-08 0.00115499 -0.4725 -7.72503e-08 0.00115587 -0.46875
-7.85318e-08 0.00115676 -0.465 -7.97868e-08 0.00115767 -0.46125 -8.10499e-08 0.00115857 -0.4575 -8.23154e-08
0.00115948 -0.45375 -8.35658e-08 0.00116041 -0.45 -8.47917e-08 0.00116134 -0.44625 -8.59956e-08 0.0011623
-0.4425 -8.72085e-08 0.00116325 -0.43875 -8.84237e-08 0.0011642 -0.435 -8.9629e-08 0.00116517 -0.43125
-9.08178e-08 0.00116614 -0.4275 -9.18882e-08 0.00116713 -0.42375 -9.30742e-08 0.00116812 -0.42 -9.42627e-08
0.00116911 -0.41625 -9.54349e-08 0.00117011 -0.4125 -9.65812e-08 0.00117111 -0.40875 -9.75804e-08 0.00117212
-0.405 -9.87171e-08 0.00117313 -0.40125 -9.98563e-08 0.00117414 -0.3975 -1.00962e-07 0.00117515 -0.39375
-1.02017e-07 0.00117616 -0.39 -1.03029e-07 0.00117716 -0.38625 -1.04053e-07 0.00117817 -0.3825 -1.05079e-07
0.00117918 -0.37875 -1.06053e-07 0.00118018 -0.375 -1.0695e-07 0.00118116 -0.37125 -1.07779e-07 0.00118213
-0.3675 -1.08621e-07 0.00118309 -0.36375 -1.09465e-07 0.00118406 -0.36 -1.10248e-07 0.00118501 -0.35625
-1.10942e-07 0.00118591 -0.3525 -1.11348e-07 0.00118678 -0.34875 -1.11978e-07 0.00118766 -0.345 -1.1261e-07
0.00118853 -0.34125 -1.13165e-07 0.00118935 -0.3375 -1.13611e-07 0.00119012 -0.33375 -1.13965e-07 0.00119081
-0.33 -1.14332e-07 0.00119151 -0.32625 -1.14699e-07 0.00119221 -0.3225 -1.14963e-07 0.00119284 -0.31875
-1.1508e-07 0.00119336 -0.315 -1.1507e-07 0.00119378 -0.31125 -1.15073e-07 0.0011942 -0.3075 -1.15075e-07
0.00119462 -0.30375 -1.14945e-07 0.00119492 -0.3 -1.1463e-07 0.00119507 -0.29625 -1.13831e-07 0.00119507
-0.2925 -1.13148e-07 0.00119482 -0.28875 -1.12243e-07 0.00119435 -0.285 -1.11177e-07 0.00119371 -0.28125
-1.10108e-07 0.00119306 -0.2775 -1.08712e-07 0.00119242 -0.27375 -1.07371e-07 0.00119144 -0.27 -1.05718e-07
0.00119013 -0.26625 -1.03839e-07 0.00118858 -0.2625 -1.01957e-07 0.00118703 -0.25875 -9.97312e-08 0.00118548
-0.255 -9.74525e-08 0.00118346 -0.25125 -9.47364e-08 0.00118095 -0.2475 -9.17132e-08 0.00117811 -0.24375
-8.86876e-08 0.00117528 -0.24 -8.56903e-08 0.00117245 -0.23625 -8.21199e-08 0.00116899 -0.2325 -7.7963e-08
0.00116491 -0.22875 -7.34173e-08 0.00116041 -0.225 -6.88735e-08 0.00115592 -0.22125 -6.40378e-08 0.00115146
-0.2175 -5.87625e-08 0.00114614 -0.21375 -5.27225e-08 0.00113997 -0.21 -4.6223e-08 0.00113329 -0.20625
-3.97376e-08 0.00112666 -0.2025 -3.30783e-08 0.00112007 -0.19875 -2.57654e-08 0.00111227 -0.195 -1.75877e-08
0.00110329 -0.19125 -8.97324e-09 0.00109371 -0.1875 -3.979e-10 0.00108423 -0.187465 -3.18284e-10 0.00108415
-0.18743 -2.38564e-10 0.00108406 -0.187395 -1.5874e-10 0.00108397 -0.18736 -7.88115e-11 0.00108388 -0.187326
1.78394e-13 0.00108379 -0.18361 8.51283e-09 0.00107443 -0.179895 1.82011e-08 0.00106356 -0.17618 2.90536e-08
0.00105122 -0.172465 4.03061e-08 0.00103841 -0.16875 5.14706e-08 0.00102578 -0.165 6.2356e-08 0.00101321
-0.16125 7.51333e-08 0.000998853 -0.1575 8.94573e-08 0.000982755 -0.15375 1.04069e-07 0.000966417 -0.15
1.1851e-07 0.00095038 -0.14625 1.32054e-07 0.000934638 -0.1425 1.49297e-07 0.000916895 -0.13875 1.69405e-07
0.000897218 -0.135 1.89465e-07 0.000877799 -0.13125 2.09207e-07 0.000858837 -0.1275 2.28736e-07 0.00084032
-0.12375 2.50491e-07 0.000819734 -0.12 2.74088e-07 0.000797486 -0.11625 2.97208e-07 0.00077588 -0.1125
3.19869e-07 0.000754895 -0.10875 3.42215e-07 0.00073451 -0.105 3.68928e-07 0.000712101 -0.10125 3.98149e-07
0.000688728 -0.0975 4.26659e-07 0.000666148 -0.0937499 4.54488e-07 0.000644331 -0.0899999 4.78579e-07 0.00062325
-0.0862499 5.06937e-07 0.000600631 -0.0824999 5.35274e-07 0.000577944 -0.0787499 5.62854e-07 0.000556118 -0.0749999
5.8971e-07 0.000535121 -0.0712499 6.11897e-07 0.000514919 -0.0674999 6.33978e-07 0.000494627 -0.0637499 6.54953e-07
0.000474979 -0.0599999 6.75412e-07 0.000456099 -0.0562499 6.95375e-07 0.000437958 -0.0524999 7.14912e-07 0.000420526
-0.0487498 7.35106e-07 0.00040543 -0.0449998 7.54883e-07 0.000390859 -0.0412498 7.74258e-07 0.000376796 -0.0374998
7.93245e-07 0.000363224 -0.0337498 8.06928e-07 0.000350125 -0.0299998 8.2594e-07 0.00034147 -0.0262498 8.44728e-07
0.00033302 -0.0224998 8.63298e-07 0.000324772 -0.0187499 8.81657e-07 0.00031672 -0.0149999 8.94642e-07 0.000308861
-0.0112499 9.06759e-07 0.000305406 -0.0074999 9.18866e-07 0.000301989 -0.00374991 9.30961e-07 0.000298609 6.11905e-08
9.43046e-07 0.000295265 0.00375005 9.54869e-07 0.000291957 0.00750005 9.66184e-07 0.000288686 0.01125 9.77478e-07
0.000285451 0.015 9.88752e-07 0.00028225 0.01875 1.00001e-06 0.000279084 0.0225 1.00452e-06 0.000278026
0.02625 1.00862e-06 0.000276973 0.03 1.01272e-06 0.000275924 0.03375 1.01685e-06 0.000274878 0.0375
1.02099e-06 0.000273836 0.04125 1.02237e-06 0.00027333 0.045 1.02325e-06 0.000272825 0.04875 1.02414e-06
0.000272321 0.0525 1.02504e-06 0.000271817 0.05625 1.02594e-06 0.000271315 0.06 1.02146e-06 0.000271098
0.06375 1.02003e-06 0.000270882 0.0675 1.0186e-06 0.000270666 0.07125 1.01716e-06 0.00027045 0.075
1.01573e-06 0.000270234 0.07875 1.01421e-06 0.000270167 0.0825 1.01231e-06 0.0002701 0.08625 1.01041e-06
0.000270033 0.09 1.0085e-06 0.000269967 0.09375 1.00658e-06 0.0002699 0.0975 1.00766e-06 0.000269885
0.10125 1.00846e-06 0.000269871 0.105 1.00926e-06 0.000269856 0.10875 1.01007e-06 0.000269842 0.1125
[...]
POINT_DATA 19719
FIELD attributes 3
age 1 19719 float
0 7.30148e-05 0.000146033 0.000219055 0.000292081 0.000365111 0.00055399 0.000742869 0.000931748 0.00112064 0.00130957
0.00149853 0.00168749 0.00187645 0.00206543 0.00225445 0.00244349 0.00263254 0.00282159 0.00301066 0.00319976
0.0033889 0.00357804 0.00376718 0.00395634 0.00414555 0.00433479 0.00452403 0.00471327 0.00490253 0.00509184
0.00528119 0.00547058 0.00566002 0.00584948 0.00603894 0.00622841 0.00641792 0.00660748 0.00679706 0.00698665
0.00717624 0.00736588 0.00755557 0.00774528 0.007935 0.00812472 0.00831449 0.00850433 0.00869419 0.00888405
0.00907391 0.00926383 0.00945381 0.00964382 0.00983384 0.0100239 0.0102139 0.0104041 0.0105943 0.0107844
0.0109746 0.0111649 0.0113552 0.0115455 0.0117359 0.0119263 0.0121167 0.0123072 0.0124977 0.0126883
0.0128788 0.0130695 0.0132602 0.0134509 0.0136417 0.0138325 0.0140233 0.0142143 0.0144052 0.0145962
0.0147872 0.0149783 0.0151695 0.0153607 0.0155519 0.0155705 0.015589 0.0156076 0.0156262 0.0156446
0.0158173 0.0159902 0.0161631 0.016336 0.016509 0.0167005 0.0168921 0.0170838 0.0172756 0.0174674
0.0176592 0.0178511 0.0180431 0.0182352 0.0184274 0.0186195 0.0188117 0.0190041 0.0191965 0.019389
0.0195815 0.0197741 0.0199668 0.0201596 0.0203525 0.0205453 0.0207382 0.020931 0.021124 0.021317
0.0215103 0.0217036 0.0218968 0.0220902 0.0222837 0.0224774 0.0226712 0.0228649 0.0230587 0.0232528
0.023447 0.0236412 0.0238354 0.0240298 0.0242243 0.0244191 0.0246139 0.0248087 0.0250036 0.0251987
0.0253941 0.0255895 0.0257849 0.0259805 0.0261763 0.0263723 0.0265684 0.0267645 0.0269607 0.0271572
0.027354 0.0275508 0.0277477 0.0279447 0.028142 0.0283396 0.0285373 0.0287349 0.0289328 0.029131
0.0293295 0.0295281 0.0297266 0.0299254 0.0301246 0.0303241 0.0305237 0.0307232 0.0309231 0.0311233
0.031324 0.0315246 0.0317253 0.0319263 0.0321277 0.0323296 0.0325315 0.0327334 0.0329356 0.0331383
0.0333415 0.0335447 0.033748 0.0339515 0.0341557 0.0343603 0.0345649 0.0347696 0.0349747 0.0351803
0.0353864 0.0355926 0.0357988 0.0360054 0.0362126 0.0364204 0.0366288 0.0368377 0.0370472 0.0372566
0.0374659 0.0376759 0.0378865 0.0380975 0.0383084 0.0385193 0.0387308 0.0389428 0.0391552 0.0393675
0.0395798 0.0397925 0.0400056 0.040219 0.0404323 0.0406455 0.040859 0.0410728 0.0412866 0.0415003
0.0417139 0.0419274 0.042141 0.0423544 0.0425676 0.0425696 0.0425716 0.0425736 0.0425756 0.0425775
0.0427885 0.042999 0.0432091 0.0434189 0.0436283 0.0438393 0.0440495 0.0442587 0.0444674 0.0446757
0.0448836 0.04509 0.0452949 0.0454993 0.0457033 0.045907 0.0461084 0.046308 0.0465071 0.046706
0.0469045 0.0471003 0.0472942 0.0474878 0.0476813 0.0478746 0.0480645 0.048253 0.0484415 0.04863
0.0488184 0.0490032 0.0491875 0.0493719 0.0495564 0.049741 0.0499223 0.0501038 0.0502854 0.0504673
0.0506494 0.0508294 0.0510096 0.0511899 0.0513704 0.0515511 0.0517311 0.0519111 0.0520912 0.0522714
0.0524517 0.0526321 0.0528125 0.052993 0.0531736 0.0533543 0.053535 0.0537157 0.0538965 0.0540773
0.0542584 0.0544395 0.0546206 0.0548017 0.0549828 0.0551643 0.0553458 0.0555272 0.0557087 0.0558902
0.0560719 0.0562537 0.0564355 0.0566173 0.0567991 0.0569812 0.0571632 0.0573453 0.0575274 0.0577095
0.0578918 0.0580742 0.0582566 0.0584389 0.0586213 0.058804 0.0589866 0.0591693 0.0593519 0.0595346
0.0597176 0.0599005 0.0600835 0.0602664 0.0604494 0.0606327 0.0608159 0.0609992 0.0611825 0.0613657
0.0615493 0.0617329 0.0619165 0.0621 0.0622836 0.0624675 0.0626513 0.0628352 0.063019 0.0632029
0.063387 0.0635712 0.0637553 0.0639394 0.0641236 0.0642623 0.0644009 0.0645396 0.0646783 0.0648143
0.0648605 0.0649068 0.064953 0.0649993 0.0650456 0.0652302 0.0654148 0.0655994 0.065784 0.0659687
0.0661535 0.0663383 0.0665231 0.066708 0.0668928 0.0670778 0.067263 0.0674482 0.0676333 0.0678185
0.0680037 0.068189 0.0683744 0.0685597 0.068745 0.0689304 0.0691158 0.0693013 0.0694867 0.0696722
0.0698577 0.0700433 0.0702288 0.0704144 0.0706 0.0707856 0.0709713 0.071157 0.0713427 0.0715283
0.071714 0.0718998 0.0720856 0.0722713 0.0724571 0.0726429 0.0728287 0.0730145 0.0732004 0.0733862
0.0735721 0.0737579 0.0739438 0.0741297 0.0743156 0.0745015 0.0746874 0.0748733 0.0750592 0.0752451
0.075431 0.0756169 0.0758028 0.0759887 0.0761746 0.0763605 0.0765464 0.0767322 0.0769181 0.077104
0.0772899 0.0774757 0.0776616 0.0778474 0.0780333 0.0782191 0.0784049 0.0785907 0.0787765 0.0789623
0.0791482 0.0793339 0.0795197 0.0797055 0.0798912 0.080077 0.0802627 0.0804485 0.0806342 0.08082
0.0810057 0.0811915 0.0813773 0.081563 0.0817488 0.0819345 0.0821203 0.082306 0.0824918 0.0826776
0.0828634 0.0830492 0.083235 0.0834207 0.0836065 0.0837924 0.0839783 0.0841641 0.0843499 0.0845358
0.0847217 0.0849076 0.0850936 0.0852795 0.0854654 0.0856514 0.0858374 0.0860233 0.0862093 0.0863953
0.0865814 0.0867674 0.0869535 0.0871395 0.0873256 0.0875117 0.0876978 0.0878839 0.08807 0.0882561
0.0884423 0.0886285 0.0888147 0.0890008 0.089187 0.0893732 0.0895595 0.0897457 0.0899319 0.0901181
0.0903044 0.0904907 0.090677 0.0908632 0.0910495 0.0912358 0.0914221 0.0916084 0.0917948 0.0919811
0.0921674 0.0923538 0.0925401 0.0927265 0.0929128 0.0930993 0.0932856 0.093472 0.0936584 0.0938448
0.0940313 0.0942177 0.0944041 0.0945905 0.094777 0.0949634 0.0951499 0.0953364 0.0955228 0.0957093
0.0958958 0.0960823 0.0962688 0.0964554 0.0966419 0.0968284 0.097015 0.0972017 0.0973883 0.0975749
0.0977615 0.0979482 0.0981349 0.0983216 0.0985083 0.098695 0.0988818 0.0990686 0.0992554 0.0994421
0.0996289 0.0998159 0.100003 0.10019 0.100377 0.100563 0.100751 0.100938 0.101125 0.101312
0.101499 0.101686 0.101874 0.102061 0.102249 0.102436 0.102624 0.102812 0.103 0.103188
0.103376 0.103564 0.103753 0.103942 0.10413 0.104319 0.104508 0.104697 0.104886 0.105076
0.105265 0.105455 0.105645 0.105834 0.106024 0.106214 0.106405 0.106595 0.106785 0.106975
0.107166 0.107356 0.107547 0.107737 0.107928 0.108118 0.108309 0.1085 0.10869 0.108881
0.109072 0.109262 0.109453 0.109643 0.109834 0.110025 0.110215 0.110406 0.110596 0.110787
0.110977 0.111168 0.111358 0.111548 0.111739 0.111929 0.112119 0.11231 0.1125 0.11269
0.11288 0.11307 0.113261 0.113451 0.113641 0.113831 0.114021 0.114211 0.114401 0.114591
0.114781 0.114971 0.115161 0.115351 0.115541 0.115731 0.115921 0.116111 0.116301 0.116491
0.116681 0.116871 0.117061 0.117251 0.11744 0.11763 0.11782 0.11801 0.1182 0.11839
0.118579 0.118769 0.118959 0.119149 0.119339 0.119528 0.119718 0.119908 0.120098 0.120287
0.120477 0.120667 0.120857 0.121046 0.121236 0.121426 0.121615 0.121805 0.121994 0.122184
0.122374 0.122563 0.122753 0.122942 0.123132 0.123321 0.123511 0.123701 0.12389 0.12408
0.124269 0.124459 0.124648 0.124838 0.125027 0.125216 0.125406 0.125595 0.125785 0.125974
0.126163 0.126353 0.126542 0.126732 0.126921 0.12711 0.1273 0.127489 0.127678 0.127868
0.128057 0.128246 0.128436 0.128625 0.128814 0.129004 0.129193 0.129382 0.129572 0.129761
0.12995 0.130139 0.130328 0.130518 0.130707 0.130896 0.131085 0.131274 0.131464 0.131653
0.131842 0.132031 0.13222 0.132409 0.132598 0.132787 0.132976 0.133165 0.133354 0.133543
0.133732 0.133921 0.13411 0.134299 0.134488 0.134677 0.134866 0.135055 0.135244 0.135432
0.135621 0.13581 0.135999 0.136187 0.136376 0.136565 0.136753 0.136942 0.137131 0.13732
0.137508 0.137697 0.137885 0.138074 0.138262 0.138451 0.138639 0.138828 0.139016 0.139205
0.139393 0.139582 0.13977 0.139959 0.140147 0.140335 0.140524 0.140712 0.140901 0.141089
0.141277 0.141466 0.141654 0.141842 0.142031 0.142219 0.142407 0.142596 0.142784 0.142972
0.14316 0.143349 0.143537 0.143725 0.143913 0.144101 0.14429 0.144478 0.144666 0.144855
0.145042 0.145231 0.145419 0.145607 0.145795 0.145983 0.146172 0.14636 0.146548 0.146736
0.146924 0.147112 0.147301 0.147489 0.147677 0.147865 0.148053 0.148241 0.148429 0.148618
0.148805 0.148994 0.149182 0.14937 0.149558 0.149746 0.149934 0.150122 0.15031 0.150499
0.150686 0.150874 0.151063 0.151251 0.151439 0.151815 0.15219 0.152566 0.152942 0.153318
0.154069 0.154819 0.15557 0.156321 0.157072 0.158573 0.160074 0.161575 0.163075 0.164576
0.166076 0.167577 0.169077 0.170578 0.172078 0.175079 0.178079 0.18108 0.18408 0.187081
0.193081 0.199081 0.205081 0.211082 0.217082 0.223082 0.229082 0.235082 0.241082 0.247082
0.253082 0.259083 0.265083 0.271083 0.277083 0.283083 0.289083 0.295083 0.301083 0.307083
0.313083 0.319083 0.325083 0.331084 0.337084 0.343084 0.349084 0.355084 0.361084 0.367084
0.373084 0.379084 0.385084 0.391084 0.397084 0.403084 0.40335 0 7.36875e-05 0.000147379
0.000221074 0.000294773 0.000368477 0.000559101 0.000749759 0.00094045 0.00113118 0.00132194 0.00151273 0.00170356
0.00189442 0.00208532 0.00227626 0.00246723 0.00265823 0.00284928 0.00304036 0.00323148 0.00342264 0.00361384
0.00380508 0.00399636 0.00418769 0.00437905 0.00457045 0.0047619 0.00495339 0.00514493 0.00533651 0.00552813
0.00571981 0.00591153 0.00610329 0.00620823 0.00631318 0.00641815 0.00652314 0.00662738 0.00671446 0.00680156
0.00688867 0.00697578 0.00706291 0.00725497 0.00744709 0.00763926 0.00783148 0.00802376 0.00821609 0.00840848
0.00860093 0.00879343 0.00898599 0.00917861 0.00937129 0.00956404 0.00975684 0.00994971 0.0101426 0.0103356
0.0105287 0.0107218 0.010915 0.0111083 0.0113016 0.0114951 0.0116885 0.0118821 0.0120757 0.0122694
0.0124632 0.0126571 0.012851 0.0130451 0.0132392 0.0134334 0.0136276 0.013822 0.0140164 0.014211
0.0144056 0.0146003 0.0147951 0.01499 0.0151851 0.0153802 0.0155754 0.0157707 0.0159661 0.0161616
0.0163572 0.0165529 0.0167488 0.0169447 0.0171408 0.017337 0.0175333 0.0177297 0.0179263 0.0181229
0.0183197 0.0185167 0.0187137 0.0189109 0.0191082 0.0193057 0.0195033 0.0197011 0.019899 0.020097
0.0202952 0.0204936 0.0206921 0.0208907 0.0210896 0.0212886 0.0214878 0.0216871 0.0218866 0.0220863
0.0222862 0.0224863 0.0226866 0.022887 0.0230877 0.0232885 0.0234896 0.0236909 0.0238923 0.024094
0.024296 0.0244981 0.0247005 0.0249031 0.025106 0.0253091 0.0255125 0.0257161 0.02592 0.0261241
0.0263285 0.0265332 0.0267382 0.0269435 0.027149 0.0273549 0.0275611 0.0277676 0.0279744 0.0281816
0.0283891 0.0285969 0.0288051 0.0290137 0.0292226 0.0294319 0.0296416 0.0298516 0.0300621 0.030273
0.0304843 0.0306961 0.0309083 0.0311209 0.031334 0.0315476 0.0317617 0.0319762 0.0321913 0.0324069
0.032623 0.0328397 0.0330569 0.0332747 0.033493 0.033712 0.0339316 0.0341518 0.0343727 0.0345942
0.0348164 0.0350393 0.0352629 0.0354872 0.0357123 0.0359381 0.0361647 0.0363921 0.0366203 0.0368494
0.0370793 0.0373101 0.0375419 0.0377744 0.038008 0.0382425 0.038478 0.0387145 0.038952 0.0391907
0.0394304 0.0396712 0.0399132 0.0401562 0.0404004 0.0406457 0.0408922 0.0411401 0.0413891 0.0416395
0.0418912 0.0421441 0.0423985 0.042654 0.0429107 0.0431685 0.0434277 0.0436886 0.0439507 0.0442139
0.0444783 0.0447438 0.0450112 0.0452791 0.0455476 0.0458166 0.0460862 0.0463582 0.04649 0.0466219
0.0467537 0.0468853 0.0469665 0.0471166 0.0472666 0.0474163 0.0475659 0.0477165 0.0479876 0.0482568
0.0485243 0.0487898 0.0490585 0.0492082 0.0493567 0.0495039 0.04965 0.0497619 0.0498794 0.0499962
0.0501122 0.0502275 0.050343 0.0505907 0.0508333 0.0510709 0.0513038 0.0515333 0.0515509 0.0515684
0.0515859 0.0516033 0.0516209 0.0518254 0.0520255 0.0522213 0.0524129 0.0525986 0.052712 0.0528236
0.0529335 0.053042 0.0531787 0.0532512 0.053323 0.0533942 0.0534648 0.0535343 0.0537089 0.0538799
0.0540474 0.0542117 0.0543695 0.05451 0.0546488 0.0547862 0.054922 0.0551366 0.0551541 0.0551716
0.0551891 0.0552066 0.055227 0.0553556 0.0554837 0.0556112 0.0557382 0.055864 0.0560071 0.0561504
0.0562938 0.0564373 0.0565807 0.0567242 0.056868 0.0570121 0.0571566 0.0573015 0.0574467 0.0575923
0.0577382 0.0578845 0.0580312 0.0581782 0.0583255 0.0584731 0.0586211 0.0587694 0.058918 0.0590669
0.0592161 0.0593657 0.0595155 0.0596657 0.0598162 0.0599669 0.060118 0.0602693 0.060421 0.060573
0.0607253 0.0608779 0.0610309 0.0611841 0.0613377 0.0614916 0.0616458 0.0618004 0.0619553 0.0621106
0.0622662 0.0624222 0.0625785 0.0627351 0.0628921 0.0630495 0.0632072 0.0633652 0.0635236 0.0636824
0.0638415 0.064001 0.0641608 0.064321 0.0644815 0.0646423 0.0648035 0.064965 0.0651269 0.0652891
0.0654516 0.0656144 0.0657776 0.065941 0.0661048 0.0662688 0.0664332 0.0665979 0.0667628 0.0669281
0.0670936 0.0672595 0.0674255 0.0675919 0.0677585 0.0679254 0.0680925 0.0682599 0.0684275 0.0685954
0.0687636 0.068932 0.0691006 0.0692694 0.0694385 0.0696077 0.0697772 0.0699469 0.0701168 0.070287
0.0704573 0.0706278 0.0707986 0.0709695 0.0711406 0.0713118 0.0714833 0.0716549 0.0718267 0.0719987
0.0721709 0.0723432 0.0725157 0.0726883 0.072861 0.0730339 0.0732069 0.0733801 0.0735535 0.0737269
0.0739005 0.0740742 0.074248 0.0744219 0.0745959 0.0747699 0.0749441 0.0751183 0.0752927 0.0754671
0.0756416 0.0758162 0.0759908 0.0761654 0.0763401 0.0765148 0.0766895 0.0768643 0.0770391 0.0772139
0.0773887 0.0775634 0.0777382 0.077913 0.0780877 0.0782624 0.0784371 0.0786117 0.0787863 0.0789609
0.0791355 0.07931 0.0794845 0.0796589 0.0798332 0.0800076 0.0801818 0.0803561 0.0805303 0.0807045
0.0808788 0.081053 0.0812272 0.0814013 0.0815755 0.0817497 0.081924 0.0820983 0.0822726 0.082447
0.0826214 0.082796 0.0829706 0.0831452 0.08332 0.0834948 0.0836697 0.0838448 0.0840199 0.0841952
0.0843706 0.0845461 0.0847217 0.0848975 0.0850733 0.0852493 0.0854254 0.0856017 0.085778 0.0859545
0.0861312 0.086308 0.0864849 0.0866619 0.086839 0.0870163 0.0871936 0.0873711 0.0875488 0.0877265
0.0879044 0.0880824 0.0882606 0.0884388 0.0886171 0.0887956 0.0889741 0.0891528 0.0893316 0.0895105
0.0896895 0.0898686 0.0900478 0.0902271 0.0904065 0.090586 0.0907656 0.0909453 0.0911251 0.091305
0.091485 0.0916651 0.0918453 0.0920256 0.0922059 0.0923863 0.0925668 0.0927474 0.0929282 0.093109
0.0932899 0.0934709 0.093652 0.0938332 0.0940145 0.0941958 0.0943772 0.0945588 0.0947404 0.0949222
0.0951041 0.095286 0.0954681 0.0956502 0.0958325 0.0960149 0.0961973 0.0963799 0.0965626 0.0967455
0.0969285 0.0971116 0.0972949 0.0974783 0.0976619 0.0978457 0.0980296 0.0982138 0.0983986 0.0985836
0.0987688 0.0989542 0.0991398 0.0993247 0.0995098 0.0996951 0.0998806 0.100066 0.100252 0.100439
0.100626 0.100813 0.101 0.101188 0.101377 0.101566 0.101756 0.101947 0.102138 0.102331
0.102524 0.102719 0.102915 0.103111 0.103309 0.103508 0.103709 0.103911 0.104115 0.10432
0.104527 0.104736 0.104947 0.105159 0.105373 0.105588 0.105805 0.106024 0.106246 0.106471
0.106697 0.106926 0.107157 0.10739 0.107625 0.107861 0.1081 0.108342 0.108587 0.108834
0.109084 0.109336 0.10959 0.109846 0.110105 0.110365 0.110627 0.110892 0.111159 0.111429
0.1117 0.111973 0.112248 0.112524 0.112802 0.113081 0.113362 0.113644 0.113928 0.114213
0.114498 0.114785 0.115073 0.115362 0.115651 0.115941 0.116232 0.116524 0.116791 0.11706
0.117328 0.117597 0.117842 0.117871 0.1179 0.117929 0.117958 0.117987 0.118281 0.118574
0.118868 0.119162 0.119455 0.119748 0.120042 0.120335 0.120627 0.12092 0.121211 0.121503
0.121794 0.122085 0.122375 0.122665 0.122955 0.123244 0.123533 0.123821 0.124109 0.124396
0.124682 0.124968 0.125253 0.125538 0.125823 0.126107 0.126391 0.126674 0.126957 0.127239
0.12752 0.127801 0.128082 0.128362 0.128642 0.128922 0.129201 0.12948 0.129758 0.130036
0.130314 0.130591 0.130868 0.131053 0.131238 0.131423 0.131607 0.131818 0.131904 0.13199
0.132076 0.132161 0.132247 0.132522 0.132796 0.133071 0.133344 0.133618 0.133891 0.134164
0.134436 0.134708 0.13498 0.135252 0.135523 0.135794 0.136065 0.136336 0.136606 0.136876
0.137145 0.137414 0.137683 0.137952 0.13822 0.138489 0.138757 0.139024 0.139291 0.139557
0.139823 0.140088 0.140353 0.140617 0.140882 0.141146 0.14141 0.141672 0.141934 0.142195
0.142455 0.142715 0.142973 0.143232 0.14349 0.143748 0.144005 0.144261 0.144516 0.14477
0.145023 0.145275 0.145527 0.145778 0.146029 0.146279 0.146529 0.146778 0.147025 0.147272
0.147518 0.147763 0.148008 0.148252 0.148496 0.148739 0.148982 0.149224 0.149465 0.149705
0.149945 0.150184 0.150422 0.150661 0.150898 0.151135 0.151372 0.151608 0.151844 0.152079
0.152313 0.152547 0.152781 0.153014 0.153247 0.153479 0.153711 0.153942 0.154173 0.154404
0.154634 0.154864 0.155094 0.155323 0.155551 0.15578 0.156008 0.156236 0.156464 0.156691
0.156918 0.157145 0.157372 0.157598 0.157824 0.15805 0.158276 0.158501 0.158727 0.158952
0.159177 0.159402 0.159627 0.159852 0.160076 0.1603 0.160525 0.160749 0.160973 0.161197
0.161421 0.161644 0.161868 0.162091 0.162315 0.162538 0.162761 0.162985 0.163054 0.163123
0.163192 0.163261 0.163334 0.163487 0.16364 0.163793 0.163946 0.164099 0.16432 0.164542
0.164763 0.164984 0.165204 0.165423 0.165642 0.165861 0.16608 0.166298 0.166515 0.166733
0.16695 0.167168 0.167385 0.167816 0.168247 0.168671 0.169087 0.169496 0.170299 0.171101
0.171901 0.172699 0.173487 0.175034 0.176559 0.178082 0.179604 0.181125 0.182644 0.184161
0.185677 0.187192 0.188707 0.191733 0.194757 0.197779 0.200799 0.203817 0.20983 0.215843
0.221854 0.227865 0.233875 0.239879 0.245883 0.251888 0.257892 0.263897 0.269899 0.275903
0.281908 0.287912 0.293916 0.299918 0.305922 0.311926 0.317929 0.323933 0.329935 0.335939
0.341943 0.347946 0.35395 0.359952 0.365955 0.371959 0.377962 0.383966 0.389967 0.395971
0.401974 0.407978 0.413981 0.419982 0.426057 0.430379 0 7.36635e-05 0.000147332 0.000221005
0.000294682 0.000368364 0.000558934 0.000749536 0.000940172 0.00113084 0.00132154 0.00151228 0.00170304 0.00189385
0.00208468 0.00227556 0.00246646 0.00265741 0.00284839 0.00303941 0.00323046 0.00342155 0.00361268 0.00380385
0.00399506 0.00418631 0.0043776 0.00456893 0.00476031 0.00495172 0.00514318 0.00533468 0.00552623 0.00571782
0.00590946 0.00610114 0.00620507 0.00630902 0.00641299 0.00651696 0.00662027 0.00670826 0.00679626 0.00688427
0.00697229 0.00706033 0.0072523 0.00744432 0.0076364 0.00782852 0.0080207 0.00821294 0.00840522 0.00859757
0.00878997 0.00898243 0.00917494 0.00936751 0.00956015 0.00975284 0.0099456 0.0101384 0.0103313 0.0105242
0.0107172 0.0109103 0.0111035 0.0112967 0.01149 0.0116833 0.0118767 0.0120702 0.0122638 0.0124574
0.0126512 0.012845 0.0130388 0.0132328 0.0134268 0.0136209 0.0138151 0.0140094 0.0142038 0.0143983
0.0145928 0.0147875 0.0149822 0.015177 0.0153719 0.015567 0.0157621 0.0159573 0.0161526 0.016348
0.0165436 0.0167392 0.0169349 0.0171308 0.0173268 0.0175229 0.0177191 0.0179154 0.0181118 0.0183084
0.0185051 0.0187019 0.0188988 0.0190959 0.0192931 0.0194905 0.0196879 0.0198856 0.0200833 0.0202813
0.0204793 0.0206776 0.0208759 0.0210745 0.0212732 0.021472 0.0216711 0.0218703 0.0220697 0.0222692
0.022469 0.0226689 0.022869 0.0230693 0.0232698 0.0234705 0.0236714 0.0238725 0.0240739 0.0242754
0.0244772 0.0246792 0.0248814 0.0250839 0.0252866 0.0254896 0.0256928 0.0258962 0.0261 0.026304
0.0265083 0.0267128 0.0269176 0.0271228 0.0273282 0.027534 0.0277401 0.0279464 0.0281531 0.0283602
0.0285676 0.0287754 0.0289835 0.029192 0.0294009 0.0296101 0.0298198 0.0298595 0.0298992 0.029939
0.0299787 0.0300176 0.0301885 0.0303596 0.0305311 0.0307028 0.0308749 0.0310872 0.0313 0.0315132
0.031727 0.0319413 0.0321562 0.0323716 0.0325875 0.0328041 0.0330212 0.033239 0.0334573 0.0336764
0.0338961 0.0341165 0.0343376 0.0345595 0.0347822 0.0350056 0.0352299 0.0354549 0.0356809 0.0359077
0.0361355 0.0363642 0.0365939 0.0368247 0.0370566 0.0372896 0.0375237 0.0377589 0.0379954 0.0382332
0.0384723 0.0387128 0.0389547 0.0391982 0.0394434 0.0396902 0.0399386 0.0401887 0.0404407 0.0406946
0.0409507 0.0412087 0.0414688 0.0417315 0.0419967 0.0422645 0.0425349 0.0428085 0.0430852 0.043365
0.0436482 0.043935 0.0442247 0.0445185 0.0448165 0.0451188 0.0454265 0.0457364 0.046051 0.0463701
0.0466939 0.0470279 0.047195 0.0473637 0.0475336 0.0477046 0.0477822 0.0479804 0.0481798 0.0483804
0.0485821 0.0487916 0.0491015 0.0494138 0.0497278 0.0500408 0.0501287 0.0502416 0.0503542 0.0504664
0.0505784 0.0506945 0.0508988 0.0511009 0.0513006 0.0514979 0.0516239 0.0518229 0.0520186 0.0522109
0.0523999 0.0525998 0.0526312 0.0526625 0.0526937 0.0527248 0.0527547 0.0529552 0.05315 0.0533398