# vtk DataFile Version 2.0
tracks
ASCII
DATASET POLYDATA
POINTS 19291 float
-1.001 1e-07 0.0011 -0.99955 9.99047e-08 0.00110002 -0.9981 9.98155e-08 0.00110004 -0.99665 9.97322e-08
0.00110007 -0.9952 9.9655e-08 0.0011001 -0.99375 9.95838e-08 0.00110014 -0.99 9.93956e-08 0.00110023
-0.98625 9.9226e-08 0.00110033 -0.9825 9.90564e-08 0.00110043 -0.97875 9.89122e-08 0.00110054 -0.975
9.88176e-08 0.00110067 -0.97125 9.87543e-08 0.00110082 -0.9675 9.87096e-08 0.00110097 -0.96375 9.86649e-08
0.00110112 -0.96 9.86521e-08 0.00110127 -0.95625 9.87014e-08 0.00110143 -0.9525 9.88041e-08 0.0011016
-0.94875 9.89161e-08 0.00110177 -0.945 9.9028e-08 0.00110194 -0.94125 9.9172e-08 0.00110211 -0.9375
9.93782e-08 0.00110229 -0.93375 9.96276e-08 0.00110246 -0.93 9.98966e-08 0.00110264 -0.92625 1.00166e-07
0.00110282 -0.9225 1.00462e-07 0.001103 -0.91875 1.00811e-07 0.00110318 -0.915 1.01192e-07 0.00110336
-0.91125 1.01594e-07 0.00110355 -0.9075 1.01996e-07 0.00110373 -0.90375 1.02417e-07 0.00110392 -0.9
1.02878e-07 0.00110411 -0.89625 1.03356e-07 0.0011043 -0.8925 1.03881e-07 0.0011045 -0.88875 1.04432e-07
0.0011047 -0.885 1.04997e-07 0.0011049 -0.88125 1.05562e-07 0.0011051 -0.8775 1.06119e-07 0.00110531
-0.87375 1.06711e-07 0.00110552 -0.87 1.07329e-07 0.00110573 -0.86625 1.07961e-07 0.00110595 -0.8625
1.08593e-07 0.00110616 -0.85875 1.09217e-07 0.00110638 -0.855 1.09884e-07 0.0011066 -0.85125 1.10584e-07
0.00110682 -0.8475 1.11301e-07 0.00110705 -0.84375 1.12019e-07 0.00110728 -0.84 1.12712e-07 0.00110751
-0.83625 1.1347e-07 0.00110775 -0.8325 1.14267e-07 0.00110799 -0.82875 1.15084e-07 0.00110823 -0.825
1.15902e-07 0.00110848 -0.82125 1.16713e-07 0.00110872 -0.8175 1.17563e-07 0.00110897 -0.81375 1.18443e-07
0.00110923 -0.81 1.1934e-07 0.00110949 -0.80625 1.20238e-07 0.00110975 -0.8025 1.21128e-07 0.00111002
-0.79875 1.22046e-07 0.00111028 -0.795 1.22984e-07 0.00111056 -0.79125 1.23931e-07 0.00111084 -0.7875
1.24879e-07 0.00111112 -0.78375 1.25796e-07 0.0011114 -0.78 1.26764e-07 0.00111168 -0.77625 1.27751e-07
0.00111198 -0.7725 1.28748e-07 0.00111228 -0.76875 1.29745e-07 0.00111258 -0.765 1.30709e-07 0.00111288
-0.76125 1.31732e-07 0.00111318 -0.7575 1.32779e-07 0.0011135 -0.75375 1.33839e-07 0.00111382 -0.75
1.34899e-07 0.00111414 -0.74625 1.35953e-07 0.00111446 -0.7425 1.3704e-07 0.00111479 -0.73875 1.38151e-07
0.00111513 -0.735 1.39275e-07 0.00111548 -0.73125 1.404e-07 0.00111582 -0.7275 1.41518e-07 0.00111616
-0.72375 1.4267e-07 0.00111652 -0.72 1.43845e-07 0.00111688 -0.71625 1.45035e-07 0.00111725 -0.7125
1.46224e-07 0.00111762 -0.70875 1.47407e-07 0.00111799 -0.705 1.48629e-07 0.00111837 -0.70125 1.4988e-07
0.00111876 -0.6975 1.51146e-07 0.00111916 -0.69375 1.52414e-07 0.00111956 -0.69 1.53631e-07 0.00111995
-0.68625 1.54933e-07 0.00112036 -0.6825 1.56266e-07 0.00112078 -0.67875 1.57616e-07 0.00112121 -0.675
1.58967e-07 0.00112164 -0.67125 1.60263e-07 0.00112206 -0.6675 1.6166e-07 0.0011225 -0.66375 1.63099e-07
0.00112296 -0.66 1.64562e-07 0.00112341 -0.65625 1.66026e-07 0.00112387 -0.6525 1.67484e-07 0.00112433
-0.64875 1.69003e-07 0.00112481 -0.645 1.70571e-07 0.00112529 -0.64125 1.72167e-07 0.00112579 -0.6375
1.73765e-07 0.00112628 -0.63375 1.75293e-07 0.00112677 -0.63 1.76944e-07 0.00112728 -0.62625 1.78641e-07
0.00112781 -0.6225 1.80367e-07 0.00112834 -0.61875 1.82094e-07 0.00112887 -0.615 1.83742e-07 0.0011294
-0.61125 1.85532e-07 0.00112995 -0.6075 1.87378e-07 0.00113051 -0.60375 1.89258e-07 0.00113108 -0.6
1.91139e-07 0.00113165 -0.59625 1.92931e-07 0.00113222 -0.5925 1.94824e-07 0.00113279 -0.58875 1.96718e-07
0.00113336 -0.585 1.98656e-07 0.00113395 -0.58125 2.00668e-07 0.00113454 -0.5775 2.02748e-07 0.00113516
-0.57375 2.04844e-07 0.00113577 -0.57 2.06943e-07 0.00113638 -0.56625 2.09088e-07 0.00113701 -0.5625
2.1131e-07 0.00113765 -0.55875 2.13606e-07 0.00113831 -0.555 2.15919e-07 0.00113897 -0.55125 2.18235e-07
0.00113963 -0.5475 2.20599e-07 0.0011403 -0.54375 2.23044e-07 0.00114099 -0.54 2.25432e-07 0.00114169
-0.53625 2.27973e-07 0.0011424 -0.5325 2.30517e-07 0.0011431 -0.52875 2.33118e-07 0.00114382 -0.525
2.35812e-07 0.00114456 -0.52125 2.38596e-07 0.00114532 -0.5175 2.41401e-07 0.00114607 -0.51375 2.4421e-07
0.00114683 -0.51 2.47079e-07 0.0011476 -0.50625 2.50044e-07 0.00114838 -0.5025 2.53105e-07 0.00114919
-0.49875 2.5619e-07 0.00114999 -0.495 2.59279e-07 0.0011508 -0.49125 2.6243e-07 0.00115162 -0.4875
2.65677e-07 0.00115246 -0.48375 2.68802e-07 0.00115331 -0.48 2.72174e-07 0.00115417 -0.47625 2.75551e-07
0.00115503 -0.4725 2.79002e-07 0.00115589 -0.46875 2.82567e-07 0.00115678 -0.465 2.8599e-07 0.00115768
-0.46125 2.89703e-07 0.00115859 -0.4575 2.93422e-07 0.00115949 -0.45375 2.97255e-07 0.00116041 -0.45
3.01262e-07 0.00116134 -0.44625 3.05138e-07 0.00116229 -0.4425 3.0936e-07 0.00116323 -0.43875 3.1359e-07
0.00116418 -0.435 3.17952e-07 0.00116514 -0.43125 3.22513e-07 0.0011661 -0.4275 3.27288e-07 0.00116708
-0.42375 3.321e-07 0.00116807 -0.42 3.36921e-07 0.00116905 -0.41625 3.41862e-07 0.00117003 -0.4125
3.46978e-07 0.00117103 -0.40875 3.52291e-07 0.00117202 -0.405 3.57646e-07 0.00117302 -0.40125 3.63012e-07
0.00117402 -0.3975 3.68517e-07 0.00117502 -0.39375 3.7422e-07 0.00117602 -0.39 3.79595e-07 0.00117701
-0.38625 3.85575e-07 0.00117801 -0.3825 3.91568e-07 0.001179 -0.37875 3.97744e-07 0.00117999 -0.375
4.04179e-07 0.00118095 -0.37125 4.10234e-07 0.00118191 -0.3675 4.17023e-07 0.00118286 -0.36375 4.2383e-07
0.00118381 -0.36 4.30871e-07 0.00118473 -0.35625 4.38242e-07 0.00118562 -0.3525 4.45996e-07 0.00118648
-0.34875 4.53814e-07 0.00118733 -0.345 4.61654e-07 0.00118818 -0.34125 4.69769e-07 0.00118899 -0.3375
4.78265e-07 0.00118973 -0.33375 4.86177e-07 0.00119041 -0.33 4.95199e-07 0.00119109 -0.32625 5.04248e-07
0.00119177 -0.3225 5.13607e-07 0.00119238 -0.31875 5.23392e-07 0.00119288 -0.315 5.32406e-07 0.00119328
-0.31125 5.42796e-07 0.00119368 -0.3075 5.53217e-07 0.00119408 -0.30375 5.64063e-07 0.00119437 -0.3
5.75489e-07 0.0011945 -0.29625 5.86001e-07 0.00119447 -0.2925 5.98856e-07 0.00119421 -0.28875 6.12376e-07
0.00119371 -0.285 6.26391e-07 0.00119305 -0.28125 6.40438e-07 0.00119239 -0.2775 6.54679e-07 0.00119173
-0.27375 6.69753e-07 0.00119073 -0.27 6.85587e-07 0.0011894 -0.26625 7.01974e-07 0.00118784 -0.2625
7.18394e-07 0.00118627 -0.25875 7.35058e-07 0.00118471 -0.255 7.52737e-07 0.00118267 -0.25125 7.71345e-07
0.00118016 -0.2475 7.90607e-07 0.00117731 -0.24375 8.09897e-07 0.00117447 -0.24 8.26152e-07 0.00117164
-0.23625 8.46969e-07 0.00116818 -0.2325 8.68927e-07 0.00116409 -0.22875 8.91641e-07 0.00115959 -0.225
9.14366e-07 0.00115512 -0.22125 9.37448e-07 0.00115066 -0.2175 9.62223e-07 0.00114535 -0.21375 9.88616e-07
0.00113919 -0.21 1.01598e-06 0.00113252 -0.20625 1.04331e-06 0.00112591 -0.2025 1.07111e-06 0.00111933
-0.19875 1.10104e-06 0.00111156 -0.195 1.13283e-06 0.0011026 -0.19125 1.16556e-06 0.00109305 -0.1875
1.1982e-06 0.00108361 -0.18375 1.22427e-06 0.00107425 -0.18 1.25942e-06 0.00106338 -0.17625 1.29669e-06
0.00105102 -0.1725 1.33472e-06 0.00103814 -0.16875 1.37253e-06 0.00102544 -0.165 1.40223e-06 0.00101292
-0.16125 1.44306e-06 0.000998624 -0.1575 1.48643e-06 0.000982603 -0.15375 1.53019e-06 0.000966342 -0.15
1.57357e-06 0.000950381 -0.14625 1.6069e-06 0.00093471 -0.1425 1.65456e-06 0.000917053 -0.13875 1.70609e-06
0.000897473 -0.135 1.75738e-06 0.000878147 -0.13125 1.80803e-06 0.000859274 -0.1275 1.8589e-06 0.000840839
-0.12375 1.91329e-06 0.000820349 -0.12 1.97066e-06 0.000798201 -0.11625 2.02712e-06 0.000776689 -0.1125
2.0827e-06 0.000755791 -0.10875 2.13825e-06 0.000735486 -0.105 2.19995e-06 0.000713158 -0.10125 2.26522e-06
0.000689856 -0.0975 2.32921e-06 0.000667341 -0.0937499 2.39198e-06 0.000645585 -0.0899999 2.4374e-06 0.000624555
-0.0862499 2.50282e-06 0.00060198 -0.0824999 2.56879e-06 0.000579324 -0.0787499 2.63334e-06 0.000557526 -0.0749999
2.69653e-06 0.000536553 -0.0712499 2.74031e-06 0.000516366 -0.0674999 2.80182e-06 0.000496054 -0.0637499 2.86223e-06
0.000476377 -0.0599999 2.92141e-06 0.000457469 -0.0562499 2.9794e-06 0.000439299 -0.0524999 3.03647e-06 0.000421833
-0.0487498 3.09805e-06 0.000406699 -0.0449998 3.15853e-06 0.000392091 -0.0412498 3.21798e-06 0.000377992 -0.0374998
3.27642e-06 0.000364385 -0.0337498 3.31359e-06 0.000351249 -0.0299998 3.37663e-06 0.000342521 -0.0262498 3.43902e-06
0.000334002 -0.0224998 3.50077e-06 0.000325687 -0.0187499 3.5619e-06 0.000317571 -0.0149999 3.6016e-06 0.000309649
-0.0112499 3.66133e-06 0.000306093 -0.0074999 3.72094e-06 0.000302576 -0.00374991 3.78044e-06 0.000299098 6.11908e-08
3.83983e-06 0.000295658 0.00375005 3.89807e-06 0.000292258 0.00750005 3.95426e-06 0.000288901 0.01125 4.0103e-06
0.000285582 0.015 4.06618e-06 0.0002823 0.01875 4.12191e-06 0.000279054 0.0225 4.17566e-06 0.000277935
0.02625 4.22781e-06 0.000276824 0.03 4.28003e-06 0.000275717 0.03375 4.33234e-06 0.000274614 0.0375
4.38473e-06 0.000273516 0.04125 4.43865e-06 0.000272979 0.045 4.49068e-06 0.000272446 0.04875 4.54282e-06
0.000271913 0.0525 4.59508e-06 0.000271382 0.05625 4.64746e-06 0.000270851 0.06 4.68636e-06 0.000270618
0.06375 4.7396e-06 0.000270386 0.0675 4.79296e-06 0.000270154 0.07125 4.84645e-06 0.000269922 0.075
4.90008e-06 0.000269691 0.07875 4.95384e-06 0.000269607 0.0825 5.0061e-06 0.000269524 0.08625 5.0585e-06
0.000269442 0.09 5.11103e-06 0.000269359 0.09375 5.1637e-06 0.000269277 0.0975 5.21157e-06 0.000269245
0.10125 5.25827e-06 0.000269214 0.105 5.30508e-06 0.000269183 0.10875 5.35202e-06 0.000269153 0.1125
5.39907e-06 0.000269122 0.11625 5.41842e-06 0.000269104 0.12 5.45187e-06 0.000269087 0.12375 5.4854e-06
0.00026907 0.1275 5.51902e-06 0.000269053 0.13125 5.55273e-06 0.000269036 0.135 5.54758e-06 0.000269015
0.13875 5.55718e-06 0.000268996 0.1425 5.5668e-06 0.000268976 0.14625 5.57645e-06 0.000268957 0.15
5.58613e-06 0.000268937 0.15375 5.5453e-06 0.000268904 0.1575 5.51921e-06 0.000268871 0.16125 5.49306e-06
0.000268838 0.165 5.46685e-06 0.000268805 0.16875 5.44057e-06 0.000268772 0.1725 5.37212e-06 0.000268719
[...]
POINT_DATA 19291
FIELD attributes 3
age 1 19291 float
0 7.30215e-05 0.000146047 0.000219076 0.000292108 0.000365145 0.000554041 0.000742938 0.000931835 0.00112075 0.00130969
0.00149867 0.00168765 0.00187663 0.00206563 0.00225466 0.00244372 0.00263279 0.00282186 0.00301094 0.00320006
0.00338922 0.00357838 0.00376754 0.00395672 0.00414595 0.00433521 0.00452447 0.00471373 0.00490301 0.00509234
0.0052817 0.00547112 0.00566058 0.00585006 0.00603954 0.00622903 0.00641856 0.00660814 0.00679775 0.00698735
0.00717696 0.00736662 0.00755633 0.00774607 0.00793581 0.00812556 0.00831535 0.00850521 0.00869509 0.00888497
0.00907486 0.0092648 0.0094548 0.00964484 0.00983488 0.0100249 0.010215 0.0104052 0.0105954 0.0107856
0.0109758 0.0111661 0.0113564 0.0115468 0.0117372 0.0119276 0.012118 0.0123086 0.0124991 0.0126897
0.0128803 0.013071 0.0132617 0.0134525 0.0136433 0.0138341 0.0140249 0.0142159 0.0144069 0.0145979
0.0147889 0.01498 0.0151713 0.0153625 0.0155538 0.015745 0.0159364 0.0161279 0.0163194 0.0165109
0.0167025 0.0168941 0.0170859 0.0172777 0.0174695 0.0176613 0.0178533 0.0180454 0.0182375 0.0184297
0.0186218 0.0188141 0.0190065 0.019199 0.0193915 0.019584 0.0197766 0.0199694 0.0201623 0.0203551
0.020548 0.0207409 0.0209338 0.0211268 0.0213199 0.0215132 0.0217065 0.0218998 0.0220932 0.0222868
0.0224805 0.0226743 0.022868 0.0230619 0.023256 0.0234502 0.0236445 0.0238388 0.0240332 0.0242278
0.0244226 0.0246174 0.0248122 0.0250072 0.0252024 0.0253978 0.0255933 0.0257887 0.0259843 0.0261801
0.0263762 0.0265724 0.0267685 0.0269648 0.0271613 0.0273582 0.027555 0.0277519 0.027949 0.0281463
0.028344 0.0285417 0.0287394 0.0289373 0.0291355 0.0293341 0.0295327 0.0297313 0.0299301 0.0301294
0.0303289 0.0305285 0.0307282 0.030928 0.0311283 0.031329 0.0315297 0.0317304 0.0319315 0.0321329
0.0323348 0.0325368 0.0327387 0.032941 0.0331437 0.0333469 0.0335502 0.0337534 0.0339571 0.0341612
0.0343659 0.0345705 0.0347752 0.0349803 0.035186 0.0353921 0.0355983 0.0358046 0.0360112 0.0362184
0.0364262 0.0366346 0.0368436 0.037053 0.0372624 0.0374718 0.0376818 0.0378923 0.0381033 0.0383142
0.0385252 0.0387366 0.0389486 0.039161 0.0393733 0.0395855 0.0397982 0.0400114 0.0402247 0.040438
0.0406512 0.0408647 0.0410784 0.0412923 0.041506 0.0417195 0.041933 0.0421466 0.04236 0.0425732
0.0427861 0.0429986 0.0432107 0.0434224 0.0436338 0.0438448 0.044055 0.0442642 0.0444729 0.0446812
0.0448891 0.0450956 0.0453005 0.045505 0.045709 0.0459126 0.0461142 0.0463137 0.046513 0.0467119
0.0469104 0.0471062 0.0473002 0.0474939 0.0476875 0.0478808 0.0480707 0.0482593 0.0484479 0.0486364
0.0488249 0.0490097 0.049194 0.0493784 0.049563 0.0497476 0.0499289 0.0501104 0.0502921 0.050474
0.0506561 0.0508361 0.0510163 0.0511967 0.0513772 0.0515579 0.0517378 0.0519179 0.052098 0.0522782
0.0524585 0.0526389 0.0528193 0.0529998 0.0531804 0.0533611 0.0535418 0.0537226 0.0539033 0.0540841
0.0542652 0.0544463 0.0546274 0.0548086 0.0549897 0.0551712 0.0553526 0.0555341 0.0557155 0.055897
0.0560788 0.0562606 0.0564424 0.0566241 0.0568059 0.056988 0.0571701 0.0573522 0.0575342 0.0577163
0.0578987 0.0580811 0.0582634 0.0584458 0.0586281 0.0588108 0.0589935 0.0591761 0.0593588 0.0595414
0.0597244 0.0599074 0.0600903 0.0602733 0.0604562 0.0606395 0.0608228 0.061006 0.0611893 0.0613725
0.0615561 0.0617397 0.0619232 0.0621068 0.0622904 0.0624742 0.0626581 0.0628419 0.0630258 0.0632096
0.0633938 0.0635779 0.063762 0.0639461 0.0641303 0.0643146 0.064499 0.0646834 0.0648678 0.0650522
0.0652338 0.0654154 0.065597 0.0657786 0.0659639 0.0659662 0.0659684 0.0659707 0.065973 0.0659752
0.0661601 0.0663449 0.0665297 0.0667145 0.0668993 0.0670843 0.0672695 0.0674547 0.0676399 0.067825
0.0680102 0.0681955 0.0683808 0.0685661 0.0687514 0.0689368 0.0691222 0.0693077 0.0694931 0.0696785
0.069864 0.0700496 0.0702351 0.0704207 0.0706062 0.0707918 0.0709774 0.0711631 0.0713487 0.0715344
0.07172 0.0719058 0.0720915 0.0722772 0.072463 0.0726487 0.0728345 0.0730203 0.0732061 0.0733918
0.0735776 0.0737635 0.0739493 0.0741351 0.0743209 0.0745068 0.0746926 0.0748784 0.0750643 0.0752501
0.075436 0.0756218 0.0758077 0.0759935 0.0761793 0.0763652 0.076551 0.0767368 0.0769226 0.0771084
0.0772942 0.07748 0.0776658 0.0778515 0.0780373 0.0782231 0.0784088 0.0785945 0.0787803 0.078966
0.0791517 0.0793374 0.0795231 0.0797088 0.0798944 0.0800802 0.0802658 0.0804515 0.0806371 0.0808228
0.0810085 0.0811941 0.0813798 0.0815654 0.0817511 0.0819368 0.0821224 0.0823081 0.0824938 0.0826794
0.0828651 0.0830508 0.0832365 0.0834222 0.0836079 0.0837937 0.0839794 0.0841652 0.0843509 0.0845367
0.0847225 0.0849083 0.0850941 0.0852799 0.0854657 0.0856516 0.0858374 0.0860233 0.0862091 0.086395
0.0865809 0.0867669 0.0869528 0.0871387 0.0873246 0.0875106 0.0876966 0.0878825 0.0880685 0.0882545
0.0884405 0.0886265 0.0888126 0.0889986 0.0891846 0.0893707 0.0895567 0.0897428 0.0899289 0.0901149
0.090301 0.0904871 0.0906732 0.0908593 0.0910454 0.0912316 0.0914177 0.0916038 0.09179 0.0919761
0.0921623 0.0923484 0.0925346 0.0927208 0.092907 0.0930932 0.0932794 0.0934656 0.0936518 0.093838
0.0940242 0.0942105 0.0943967 0.094583 0.0947692 0.0949555 0.0951418 0.0953281 0.0955144 0.0957006
0.095887 0.0960733 0.0962597 0.096446 0.0966323 0.0968187 0.0970052 0.0971916 0.0973781 0.0975645
0.0977509 0.0979374 0.0981239 0.0983103 0.0984968 0.0986833 0.0988697 0.0990561 0.0992425 0.0994289
0.0996154 0.0998016 0.0999878 0.100174 0.10036 0.100546 0.100732 0.100918 0.101104 0.10129
0.101437 0.101584 0.101731 0.101878 0.101998 0.102042 0.102087 0.102131 0.102175 0.10222
0.102405 0.102591 0.102777 0.102963 0.103149 0.103335 0.103521 0.103707 0.103893 0.10408
0.104266 0.104452 0.104639 0.104826 0.105012 0.105199 0.105387 0.105574 0.105762 0.105949
0.106137 0.106325 0.106514 0.106703 0.106891 0.10708 0.10727 0.10746 0.10765 0.10784
0.108031 0.108222 0.108414 0.108606 0.108798 0.10899 0.109183 0.109376 0.109569 0.109763
0.109956 0.110151 0.110345 0.11054 0.110735 0.110929 0.111125 0.11132 0.111516 0.111711
0.111907 0.112102 0.112298 0.112493 0.112689 0.112885 0.113081 0.113277 0.113474 0.11367
0.113866 0.114062 0.114259 0.114455 0.114652 0.114848 0.115044 0.115241 0.115437 0.115633
0.11583 0.116026 0.116222 0.116418 0.116615 0.116811 0.117007 0.117203 0.117398 0.117594
0.11779 0.117986 0.118181 0.118377 0.118572 0.118767 0.118962 0.119157 0.119352 0.119547
0.119742 0.119937 0.120131 0.120325 0.12052 0.120714 0.120908 0.121102 0.121296 0.121489
0.121683 0.121876 0.122069 0.122263 0.122456 0.122648 0.122841 0.123034 0.123226 0.123419
0.123611 0.123803 0.123995 0.124187 0.124379 0.124571 0.124762 0.124954 0.125145 0.125337
0.125528 0.125719 0.12591 0.126101 0.126292 0.126483 0.126673 0.126864 0.127055 0.127245
0.127435 0.127626 0.127816 0.128006 0.128196 0.128386 0.128576 0.128766 0.128956 0.129146
0.129336 0.129526 0.129716 0.129905 0.130095 0.130285 0.130474 0.130664 0.130853 0.131043
0.131232 0.131422 0.131611 0.1318 0.13199 0.132179 0.132368 0.132558 0.132747 0.132936
0.133125 0.133314 0.133504 0.133693 0.133882 0.134071 0.13426 0.134449 0.134638 0.134827
0.135016 0.135205 0.135394 0.135583 0.135772 0.135961 0.13615 0.136339 0.136528 0.136717
0.136906 0.137094 0.137283 0.137472 0.137661 0.13785 0.138039 0.138227 0.138416 0.138605
0.138794 0.138982 0.139171 0.13936 0.139549 0.139737 0.139926 0.140115 0.140304 0.140492
0.140681 0.14087 0.141058 0.141247 0.141436 0.141624 0.141813 0.142001 0.14219 0.142379
0.142567 0.142756 0.142944 0.143133 0.143322 0.14351 0.143699 0.143887 0.144076 0.144264
0.144453 0.144641 0.14483 0.145019 0.145207 0.145395 0.145584 0.145773 0.145961 0.14615
0.146338 0.146526 0.146715 0.146903 0.147092 0.14728 0.147469 0.147657 0.147846 0.148034
0.148222 0.148411 0.148599 0.148788 0.148976 0.149165 0.149353 0.149541 0.14973 0.149918
0.150106 0.150295 0.150483 0.150672 0.15086 0.151048 0.151237 0.151425 0.151614 0.151802
0.152178 0.152555 0.152931 0.153307 0.153684 0.154435 0.155186 0.155937 0.156689 0.15744
0.158941 0.160441 0.161942 0.163443 0.164943 0.166444 0.167944 0.169445 0.170945 0.172446
0.175446 0.178447 0.181447 0.184448 0.187448 0.193448 0.199449 0.205449 0.211449 0.217449
0.223449 0.22945 0.23545 0.24145 0.24745 0.25345 0.25945 0.26545 0.27145 0.277451
0.283451 0.289451 0.295451 0.301451 0.307451 0.313451 0.319451 0.325451 0.331451 0.337451
0.343452 0.349452 0.355452 0.361452 0.367452 0.373452 0.379452 0.385452 0.391452 0.397452
0.403452 0.407096 0 7.37034e-05 0.000147411 0.000221122 0.000294837 0.000368557 0.000559223 0.000749922
0.000940657 0.00113142 0.00132223 0.00151306 0.00170394 0.00189484 0.00208579 0.00227677 0.00246778 0.00265883
0.00284993 0.00304106 0.00323222 0.00342343 0.00361468 0.00380596 0.00399729 0.00418866 0.00438007 0.00457152
0.00476302 0.00495456 0.00514615 0.00533778 0.00552946 0.00572118 0.00591295 0.00610477 0.00629663 0.00648855
0.00668051 0.00687253 0.00706459 0.00725671 0.00744888 0.00764111 0.00783339 0.00802572 0.00821811 0.00841056
0.00860306 0.00879562 0.00898824 0.00918092 0.00937367 0.00956647 0.00975934 0.00995227 0.0101453 0.0103383
0.0105315 0.0107247 0.0109179 0.0111113 0.0113047 0.0114981 0.0116917 0.0118853 0.012079 0.0122728
0.0124667 0.0126606 0.0128546 0.0130487 0.0132429 0.0134371 0.0136315 0.0138259 0.0140205 0.0142151
0.0144098 0.0146046 0.0147995 0.0149945 0.0151896 0.0153847 0.01558 0.0157754 0.0159709 0.0161665
0.0163622 0.016558 0.016754 0.01695 0.0171462 0.0173425 0.0175389 0.0177354 0.017932 0.0181288
0.0183257 0.0185227 0.0187199 0.0189171 0.0191146 0.0193121 0.0195099 0.0197077 0.0199057 0.0201039
0.0203022 0.0205006 0.0206993 0.020898 0.021097 0.0212961 0.0214954 0.0216949 0.0218945 0.0220943
0.0222943 0.0224945 0.0226949 0.0228955 0.0230963 0.0232973 0.0234984 0.0236998 0.0239015 0.0241033
0.0243053 0.0245076 0.0247102 0.0249129 0.0251159 0.0253192 0.0255227 0.0257264 0.0259304 0.0261347
0.0263393 0.0265442 0.0267493 0.0269547 0.0271604 0.0273665 0.0275728 0.0277795 0.0279864 0.0281937
0.0284014 0.0286094 0.0288178 0.0290265 0.0292355 0.029445 0.0296549 0.0298651 0.0300757 0.0302868
0.0304983 0.0307102 0.0309226 0.0311354 0.0313487 0.0315625 0.0317767 0.0319914 0.0322067 0.0324224
0.0326388 0.0328556 0.033073 0.033291 0.0335095 0.0337287 0.0339485 0.0341689 0.0343899 0.0346116
0.034834 0.0350571 0.0352809 0.0355054 0.0357306 0.0359567 0.0361835 0.036411 0.0366394 0.0368687
0.0370988 0.0373299 0.0375618 0.0377945 0.0380283 0.038263 0.0384987 0.0387354 0.0389731 0.0392119
0.0394518 0.0396928 0.0399349 0.0401781 0.0404225 0.040668 0.0409147 0.0411627 0.041412 0.0416625
0.0419144 0.0421675 0.042422 0.0426777 0.0429346 0.0431927 0.043452 0.0437131 0.0439753 0.0442388
0.0445035 0.0447692 0.0450369 0.0453051 0.0455739 0.0458432 0.0461131 0.0463854 0.0465174 0.0466493
0.0467812 0.0469129 0.0469941 0.0471447 0.047295 0.0474453 0.0475953 0.0477464 0.048018 0.048288
0.0485563 0.0488226 0.0490921 0.0492438 0.0493941 0.0495433 0.0496913 0.049804 0.0499207 0.0500367
0.0501519 0.0502664 0.0503812 0.0506298 0.0508733 0.0511119 0.0513457 0.0515761 0.0515947 0.0516133
0.0516318 0.0516503 0.0516689 0.0518731 0.052073 0.0522685 0.0524599 0.0526454 0.0527602 0.0528732
0.0529844 0.0530942 0.0532325 0.0533043 0.0533755 0.053446 0.053516 0.0535849 0.0537602 0.0539319
0.0541001 0.0542651 0.0544236 0.0545655 0.0547058 0.0548445 0.0549817 0.0551937 0.0552124 0.055231
0.0552496 0.0552683 0.0552901 0.0554181 0.0555455 0.0556725 0.0557989 0.0559241 0.0560679 0.0562118
0.0563558 0.0565 0.0566441 0.0567883 0.0569328 0.0570776 0.0572228 0.0573684 0.0575143 0.0576606
0.0578073 0.0579544 0.0581018 0.0582495 0.0583976 0.058546 0.0586947 0.0588438 0.0589933 0.059143
0.0592931 0.0594435 0.0595942 0.0597452 0.0598966 0.0600482 0.0602002 0.0603525 0.0605051 0.060658
0.0608113 0.0609648 0.0611188 0.061273 0.0614276 0.0615825 0.0617377 0.0618933 0.0620493 0.0622056
0.0623622 0.0625193 0.0626766 0.0628344 0.0629925 0.0631509 0.0633097 0.0634689 0.063502 0.0635352
0.0635683 0.0636015 0.0636305 0.063758 0.0638858 0.0640138 0.0641421 0.0642705 0.0644319 0.0645936
0.0647556 0.064918 0.0650807 0.0652438 0.0654072 0.0655709 0.065735 0.0658994 0.0660641 0.0662291
0.0663945 0.0665601 0.0667261 0.0668924 0.0670589 0.0672258 0.067393 0.0675604 0.0677281 0.0678961
0.0680643 0.0682328 0.0684016 0.0685707 0.06874 0.0689095 0.0690793 0.0692494 0.0694197 0.0695902
0.0697609 0.0699318 0.070103 0.0702744 0.070446 0.0706178 0.0707898 0.070962 0.0711344 0.071307
0.0714797 0.0716526 0.0718257 0.071999 0.0721725 0.0723461 0.0725199 0.0726938 0.0728679 0.0730421
0.0732164 0.0733909 0.0735655 0.0737403 0.0739151 0.0740901 0.0742652 0.0744404 0.0746157 0.0747911
0.0749665 0.075142 0.0753176 0.0754933 0.0756691 0.0758449 0.0760208 0.0761967 0.0763727 0.0765487
0.0767246 0.0769006 0.0770766 0.0772527 0.0774288 0.0776048 0.0777808 0.0779568 0.0781328 0.0783088
0.0784847 0.0786605 0.0788364 0.0790122 0.0791879 0.0793637 0.0795393 0.079715 0.0798905 0.080066
0.0802415 0.0804169 0.0805922 0.0807676 0.0809429 0.0811182 0.0812935 0.0814687 0.0816439 0.0818192
0.0819944 0.0821697 0.0823449 0.0825203 0.0826956 0.0828711 0.0830466 0.0832221 0.0833977 0.0835734
0.0837491 0.083925 0.0841009 0.0842769 0.0844531 0.0846293 0.0848057 0.0849821 0.0851587 0.0853354
0.0855121 0.085689 0.085866 0.0860431 0.0862203 0.0863977 0.0865752 0.0867527 0.0869304 0.0871082
0.0872861 0.0874641 0.0876422 0.0878204 0.0879987 0.0881772 0.0883557 0.0885344 0.0887131 0.0888919
0.0890708 0.0892498 0.0894289 0.0896081 0.0897874 0.0899668 0.0901463 0.0903258 0.0905055 0.0906852
0.090865 0.0910449 0.0912249 0.0914049 0.0915851 0.0917654 0.0919457 0.0921261 0.0923066 0.0924872
0.0926678 0.0928486 0.0930294 0.0932103 0.0933914 0.0935725 0.0937538 0.0939351 0.0941165 0.094298
0.0944796 0.0946613 0.0948431 0.0950251 0.0952072 0.0953894 0.0955718 0.0957542 0.0959368 0.0961195
0.0963024 0.0964854 0.0966685 0.0968518 0.0970353 0.097219 0.0974029 0.0975868 0.097771 0.0979553
0.0981397 0.0983242 0.0985089 0.0986943 0.0988796 0.0990649 0.0992502 0.0994353 0.0996195 0.0998033
0.0999866 0.10017 0.100352 0.100534 0.100716 0.100897 0.101077 0.101257 0.101404 0.101551
0.101697 0.101843 0.101973 0.102008 0.102043 0.102079 0.102114 0.102149 0.102326 0.102503
0.10268 0.102857 0.103034 0.103211 0.103388 0.103566 0.103744 0.103923 0.104103 0.104284
0.104466 0.104649 0.104833 0.105019 0.105207 0.105397 0.105588 0.105783 0.105979 0.106178
0.106379 0.106584 0.106791 0.107002 0.107215 0.107432 0.107653 0.107877 0.108105 0.108336
0.108571 0.108809 0.109052 0.109298 0.109548 0.109802 0.11006 0.110322 0.110587 0.110857
0.11113 0.111408 0.111689 0.111749 0.11181 0.111871 0.111932 0.111998 0.112225 0.112455
0.112688 0.112923 0.113161 0.113469 0.113781 0.114097 0.114418 0.114744 0.115075 0.115408
0.115746 0.116088 0.116434 0.116783 0.117136 0.117491 0.117849 0.118208 0.118568 0.118926
0.119283 0.119641 0.119999 0.120357 0.120713 0.121067 0.12142 0.121684 0.121701 0.121719
0.121736 0.121754 0.121771 0.12212 0.122466 0.122809 0.123149 0.123487 0.123821 0.124153
0.124481 0.124805 0.125128 0.125449 0.125768 0.126085 0.1264 0.126712 0.127021 0.127329
0.127634 0.127938 0.128239 0.128291 0.128342 0.128393 0.128444 0.128496 0.128744 0.12899
0.129234 0.129477 0.129719 0.130009 0.130298 0.130585 0.13087 0.131154 0.131436 0.131717
0.131997 0.132275 0.132552 0.132828 0.133103 0.133377 0.133649 0.133921 0.134191 0.134461
0.13473 0.134998 0.135266 0.135532 0.135798 0.136062 0.136327 0.13659 0.136646 0.136702
0.136757 0.136813 0.136872 0.137078 0.137283 0.137488 0.137693 0.137897 0.138157 0.138416
0.138674 0.138932 0.139189 0.139445 0.139701 0.139957 0.140212 0.140466 0.14072 0.140974
0.141228 0.141481 0.141734 0.141986 0.142238 0.14249 0.142741 0.142993 0.143243 0.143494
0.143745 0.143996 0.144246 0.144496 0.144746 0.144995 0.145245 0.145495 0.145744 0.145993
0.146242 0.146491 0.14674 0.146989 0.147238 0.147487 0.147736 0.147984 0.148233 0.148481
0.14873 0.148979 0.149228 0.149476 0.149725 0.149973 0.150222 0.150471 0.150719 0.150968
0.151217 0.151466 0.151715 0.151963 0.152212 0.152461 0.15271 0.15296 0.153208 0.153458
0.153707 0.153956 0.154206 0.154455 0.154704 0.154954 0.155204 0.155454 0.155703 0.155953
0.156203 0.156453 0.156703 0.156953 0.157203 0.157453 0.157703 0.157954 0.158203 0.158453
0.158704 0.158954 0.159204 0.159454 0.159704 0.159954 0.160204 0.160454 0.160704 0.160954
0.161204 0.161454 0.161704 0.161954 0.162204 0.162454 0.162704 0.162954 0.163203 0.163453
0.163703 0.163952 0.164202 0.164271 0.164341 0.16441 0.164479 0.164551 0.164731 0.16491
0.16509 0.165269 0.165449 0.165695 0.165943 0.166192 0.16644 0.166688 0.16693 0.167178
0.167426 0.167673 0.16792 0.168158 0.168405 0.168652 0.168899 0.169145 0.16938 0.169625
0.169871 0.170117 0.170362 0.170826 0.171293 0.171753 0.172199 0.172631 0.173453 0.174276
0.175096 0.175914 0.17672 0.17827 0.179801 0.181332 0.182862 0.184392 0.185908 0.187432
0.188956 0.19048 0.192004 0.195029 0.198055 0.201081 0.204105 0.20713 0.213143 0.219156
0.225168 0.23118 0.237192 0.243195 0.249202 0.255208 0.261215 0.267222 0.273224 0.27923
0.285237 0.291243 0.297249 0.303251 0.309257 0.315263 0.32127 0.327276 0.333277 0.339283
0.345289 0.351295 0.357301 0.363303 0.369308 0.375314 0.38132 0.387325 0.393327 0.399332
0.405338 0.411344 0.417349 0.423351 0.429393 0.435474 0.441595 0.447755 0 7.36797e-05
0.000147364 0.000221053 0.000294747 0.000368446 0.000559057 0.000749703 0.000940381 0.00113109 0.00132184 0.00151262
0.00170343 0.00189428 0.00208516 0.00227608 0.00246703 0.00265802 0.00284905 0.00304011 0.00323121 0.00342235
0.00361353 0.00380475 0.00399601 0.00418731 0.00437865 0.00457003 0.00476145 0.00495292 0.00514443 0.00533598
0.00552758 0.00571923 0.00591092 0.00610266 0.00629444 0.00648627 0.00667815 0.00687008 0.00706206 0.00725409
0.00744617 0.0076383 0.00783049 0.00802273 0.00821502 0.00840737 0.00859978 0.00879224 0.00898476 0.00917734
0.00936998 0.00956268 0.00975544 0.00994826 0.0101411 0.0103341 0.0105271 0.0107202 0.0109133 0.0111065
0.0112998 0.0114932 0.0116866 0.0118801 0.0120737 0.0122673 0.012461 0.0126548 0.0128487 0.0130427
0.0132367 0.0134308 0.013625 0.0138193 0.0140137 0.0142082 0.0144027 0.0145973 0.0147921 0.0149869
0.0151818 0.0153768 0.0155719 0.0157672 0.0159625 0.0161579 0.0163534 0.016549 0.0167448 0.0169406
0.0171366 0.0173326 0.0175288 0.0177251 0.0179216 0.0181181 0.0183148 0.0185116 0.0187085 0.0189056
0.0191028 0.0193001 0.0194976 0.0196952 0.0198929 0.0200908 0.0202889 0.0204871 0.0206854 0.0208839
0.0210826 0.0212814 0.0214804 0.0216796 0.021879 0.0220785 0.0222782 0.0224781 0.0226781 0.0228784
0.0230789 0.0232795 0.0234804 0.0236814 0.0238827 0.0240842 0.0242859 0.0244879 0.02469 0.0248924
0.0250951 0.0252979 0.0255011 0.0257045 0.0259081 0.026112 0.0263162 0.0265207 0.0267254 0.0269304
0.0271358 0.0273414 0.0275473 0.0277536 0.0279602 0.0281671 0.0283744 0.028582 0.02879 0.0289983
0.029207 0.0294161 0.0296256 0.0298355 0.0298619 0.0298883 0.0299148 0.0299412 0.0299673 0.0301515
0.030336 0.0305209 0.0307061 0.0308916 0.0311041 0.0313172 0.0315307 0.0317447 0.0319593 0.0321744
0.03239 0.0326062 0.032823 0.0330405 0.0332585 0.0334771 0.0336964 0.0339165 0.0341371 0.0343585
0.0345807 0.0348037 0.0350274 0.0352519 0.0354773 0.0357035 0.0359307 0.0361588 0.0363878 0.0366179
0.036849 0.0370812 0.0373146 0.0375491 0.0377847 0.0380216 0.0382598 0.0384994 0.0387404 0.0389828
0.0392269 0.0394727 0.0397202 0.0399693 0.0402201 0.0404729 0.0407277 0.0409847 0.0412438 0.041505
0.0417688 0.0420354 0.0423046 0.0425766 0.0428519 0.0431304 0.0434122 0.0436976 0.0439867 0.0442788
0.0445752 0.044876 0.0451813 0.0454922 0.0458056 0.0461238 0.0464469 0.0467749 0.0471132 0.047317
0.0475229 0.0477307 0.0479402 0.0480137 0.048189 0.0483652 0.0485424 0.0487204 0.0489046 0.0492438
0.0495857 0.0499296 0.0502722 0.0503513 0.0504493 0.050547 0.0506445 0.0507418 0.0508422 0.0510643
0.0512839 0.0515005 0.0517143 0.051846 0.0520373 0.0522254 0.0524105 0.0525924 0.0527842 0.0528234