# vtk DataFile Version 2.0
tracks
ASCII
DATASET POLYDATA
POINTS 19282 float
-1.001 1e-07 0.0011 -0.99955 1.00414e-07 0.00110002 -0.9981 1.00834e-07 0.00110004 -0.99665 1.0126e-07
0.00110007 -0.9952 1.0169e-07 0.0011001 -0.99375 1.02127e-07 0.00110014 -0.99 1.03249e-07 0.00110024
-0.98625 1.04391e-07 0.00110033 -0.9825 1.05534e-07 0.00110043 -0.97875 1.067e-07 0.00110054 -0.975
1.07911e-07 0.00110067 -0.97125 1.09148e-07 0.00110082 -0.9675 1.10405e-07 0.00110097 -0.96375 1.11663e-07
0.00110112 -0.96 1.12946e-07 0.00110128 -0.95625 1.14279e-07 0.00110144 -0.9525 1.15652e-07 0.00110161
-0.94875 1.17035e-07 0.00110178 -0.945 1.18419e-07 0.00110195 -0.94125 1.19819e-07 0.00110212 -0.9375
1.21249e-07 0.00110229 -0.93375 1.22688e-07 0.00110247 -0.93 1.2415e-07 0.00110265 -0.92625 1.25613e-07
0.00110283 -0.9225 1.27091e-07 0.00110301 -0.91875 1.28596e-07 0.00110319 -0.915 1.30105e-07 0.00110337
-0.91125 1.3164e-07 0.00110356 -0.9075 1.33175e-07 0.00110374 -0.90375 1.34737e-07 0.00110393 -0.9
1.36348e-07 0.00110412 -0.89625 1.37983e-07 0.00110431 -0.8925 1.39711e-07 0.00110451 -0.88875 1.41507e-07
0.00110471 -0.885 1.43337e-07 0.00110491 -0.88125 1.45168e-07 0.00110512 -0.8775 1.46989e-07 0.00110532
-0.87375 1.48887e-07 0.00110553 -0.87 1.50851e-07 0.00110574 -0.86625 1.52849e-07 0.00110596 -0.8625
1.54849e-07 0.00110617 -0.85875 1.56837e-07 0.00110639 -0.855 1.58901e-07 0.00110661 -0.85125 1.61026e-07
0.00110684 -0.8475 1.63185e-07 0.00110707 -0.84375 1.65344e-07 0.0011073 -0.84 1.67468e-07 0.00110753
-0.83625 1.69686e-07 0.00110776 -0.8325 1.71961e-07 0.001108 -0.82875 1.74267e-07 0.00110825 -0.825
1.76573e-07 0.00110849 -0.82125 1.78868e-07 0.00110874 -0.8175 1.8124e-07 0.00110899 -0.81375 1.83673e-07
0.00110925 -0.81 1.8614e-07 0.00110951 -0.80625 1.88608e-07 0.00110977 -0.8025 1.91064e-07 0.00111003
-0.79875 1.93611e-07 0.0011103 -0.795 1.96234e-07 0.00111058 -0.79125 1.98897e-07 0.00111086 -0.7875
2.01562e-07 0.00111114 -0.78375 2.04178e-07 0.00111142 -0.78 2.06928e-07 0.0011117 -0.77625 2.09759e-07
0.001112 -0.7725 2.12635e-07 0.0011123 -0.76875 2.15512e-07 0.0011126 -0.765 2.18333e-07 0.0011129
-0.76125 2.21294e-07 0.00111321 -0.7575 2.24334e-07 0.00111352 -0.75375 2.27417e-07 0.00111384 -0.75
2.30501e-07 0.00111416 -0.74625 2.33574e-07 0.00111449 -0.7425 2.3673e-07 0.00111482 -0.73875 2.3995e-07
0.00111515 -0.735 2.43207e-07 0.0011155 -0.73125 2.46466e-07 0.00111584 -0.7275 2.49713e-07 0.00111619
-0.72375 2.53036e-07 0.00111654 -0.72 2.56417e-07 0.00111691 -0.71625 2.59831e-07 0.00111728 -0.7125
2.63247e-07 0.00111765 -0.70875 2.66651e-07 0.00111802 -0.705 2.70139e-07 0.0011184 -0.70125 2.73693e-07
0.00111879 -0.6975 2.77284e-07 0.00111919 -0.69375 2.80877e-07 0.00111958 -0.69 2.84378e-07 0.00111998
-0.68625 2.8806e-07 0.00112039 -0.6825 2.91822e-07 0.00112081 -0.67875 2.9563e-07 0.00112124 -0.675
2.9944e-07 0.00112167 -0.67125 3.03147e-07 0.00112209 -0.6675 3.07067e-07 0.00112253 -0.66375 3.11089e-07
0.00112298 -0.66 3.15168e-07 0.00112344 -0.65625 3.1925e-07 0.0011239 -0.6525 3.23321e-07 0.00112436
-0.64875 3.27537e-07 0.00112484 -0.645 3.31875e-07 0.00112532 -0.64125 3.36283e-07 0.00112581 -0.6375
3.40695e-07 0.00112631 -0.63375 3.44971e-07 0.0011268 -0.63 3.49528e-07 0.00112731 -0.62625 3.54217e-07
0.00112783 -0.6225 3.58983e-07 0.00112836 -0.61875 3.63753e-07 0.0011289 -0.615 3.68367e-07 0.00112943
-0.61125 3.73287e-07 0.00112997 -0.6075 3.78341e-07 0.00113054 -0.60375 3.83475e-07 0.00113111 -0.6
3.88614e-07 0.00113168 -0.59625 3.93571e-07 0.00113225 -0.5925 3.98735e-07 0.00113282 -0.58875 4.03905e-07
0.00113339 -0.585 4.09169e-07 0.00113397 -0.58125 4.14591e-07 0.00113457 -0.5775 4.20161e-07 0.00113518
-0.57375 4.25767e-07 0.00113579 -0.57 4.31378e-07 0.00113641 -0.56625 4.37099e-07 0.00113703 -0.5625
4.43001e-07 0.00113767 -0.55875 4.49074e-07 0.00113833 -0.555 4.55186e-07 0.00113899 -0.55125 4.61305e-07
0.00113964 -0.5475 4.67542e-07 0.00114031 -0.54375 4.7397e-07 0.001141 -0.54 4.80297e-07 0.0011417
-0.53625 4.86953e-07 0.00114241 -0.5325 4.93617e-07 0.00114312 -0.52875 5.00409e-07 0.00114383 -0.525
5.07405e-07 0.00114457 -0.52125 5.14602e-07 0.00114532 -0.5175 5.21845e-07 0.00114607 -0.51375 5.291e-07
0.00114683 -0.51 5.36486e-07 0.00114759 -0.50625 5.44083e-07 0.00114838 -0.5025 5.5189e-07 0.00114918
-0.49875 5.5975e-07 0.00114999 -0.495 5.67622e-07 0.00115079 -0.49125 5.7563e-07 0.00115161 -0.4875
5.8385e-07 0.00115244 -0.48375 5.91801e-07 0.00115329 -0.48 6.00296e-07 0.00115415 -0.47625 6.08806e-07
0.001155 -0.4725 6.17463e-07 0.00115586 -0.46875 6.26349e-07 0.00115675 -0.465 6.34891e-07 0.00115765
-0.46125 6.4408e-07 0.00115855 -0.4575 6.53286e-07 0.00115945 -0.45375 6.6269e-07 0.00116036 -0.45
6.72393e-07 0.00116129 -0.44625 6.81716e-07 0.00116223 -0.4425 6.91812e-07 0.00116317 -0.43875 7.01928e-07
0.00116411 -0.435 7.12266e-07 0.00116507 -0.43125 7.22932e-07 0.00116603 -0.4275 7.33961e-07 0.001167
-0.42375 7.45073e-07 0.00116798 -0.42 7.56208e-07 0.00116895 -0.41625 7.67545e-07 0.00116994 -0.4125
7.79177e-07 0.00117092 -0.40875 7.91149e-07 0.00117191 -0.405 8.03216e-07 0.00117291 -0.40125 8.1531e-07
0.0011739 -0.3975 8.27628e-07 0.0011749 -0.39375 8.40268e-07 0.00117588 -0.39 8.52042e-07 0.00117687
-0.38625 8.65173e-07 0.00117786 -0.3825 8.78335e-07 0.00117885 -0.37875 8.91784e-07 0.00117982 -0.375
9.05635e-07 0.00118078 -0.37125 9.18452e-07 0.00118173 -0.3675 9.32916e-07 0.00118267 -0.36375 9.47417e-07
0.00118361 -0.36 9.62257e-07 0.00118453 -0.35625 9.77567e-07 0.00118541 -0.3525 9.93466e-07 0.00118626
-0.34875 1.00951e-06 0.0011871 -0.345 1.02559e-06 0.00118795 -0.34125 1.04206e-06 0.00118875 -0.3375
1.05904e-06 0.00118948 -0.33375 1.0744e-06 0.00119015 -0.33 1.09221e-06 0.00119083 -0.32625 1.11008e-06
0.0011915 -0.3225 1.12837e-06 0.0011921 -0.31875 1.14724e-06 0.00119259 -0.315 1.16407e-06 0.00119299
-0.31125 1.18391e-06 0.00119338 -0.3075 1.2038e-06 0.00119377 -0.30375 1.22424e-06 0.00119405 -0.3
1.24542e-06 0.00119418 -0.29625 1.26409e-06 0.00119414 -0.2925 1.28721e-06 0.00119388 -0.28875 1.31116e-06
0.00119338 -0.285 1.33572e-06 0.00119271 -0.28125 1.36034e-06 0.00119205 -0.2775 1.38536e-06 0.00119138
-0.27375 1.41144e-06 0.00119039 -0.27 1.43841e-06 0.00118906 -0.26625 1.46604e-06 0.00118749 -0.2625
1.49373e-06 0.00118593 -0.25875 1.52191e-06 0.00118437 -0.255 1.55129e-06 0.00118233 -0.25125 1.58167e-06
0.00117981 -0.2475 1.61277e-06 0.00117697 -0.24375 1.64392e-06 0.00117413 -0.24 1.66889e-06 0.0011713
-0.23625 1.70196e-06 0.00116785 -0.2325 1.73619e-06 0.00116377 -0.22875 1.77117e-06 0.00115928 -0.225
1.80618e-06 0.00115481 -0.22125 1.84189e-06 0.00115036 -0.2175 1.87924e-06 0.00114506 -0.21375 1.91808e-06
0.00113891 -0.21 1.9578e-06 0.00113226 -0.20625 1.99749e-06 0.00112565 -0.2025 2.0381e-06 0.00111909
-0.19875 2.08072e-06 0.00111133 -0.195 2.1249e-06 0.00110239 -0.19125 2.16983e-06 0.00109287 -0.1875
2.21466e-06 0.00108344 -0.18375 2.24744e-06 0.0010741 -0.18 2.29461e-06 0.00106325 -0.17625 2.34334e-06
0.00105091 -0.1725 2.39257e-06 0.00103806 -0.16875 2.44157e-06 0.00102539 -0.165 2.47629e-06 0.00101288
-0.16125 2.52781e-06 0.000998619 -0.1575 2.58091e-06 0.000982627 -0.15375 2.63413e-06 0.000966395 -0.15
2.68697e-06 0.000950461 -0.14625 2.7229e-06 0.000934816 -0.1425 2.77905e-06 0.000917188 -0.13875 2.83767e-06
0.000897636 -0.135 2.89594e-06 0.000878338 -0.13125 2.95363e-06 0.00085949 -0.1275 3.0121e-06 0.000841078
-0.12375 3.07196e-06 0.000820609 -0.12 3.13304e-06 0.000798478 -0.11625 3.19334e-06 0.000776982 -0.1125
3.25289e-06 0.000756099 -0.10875 3.31299e-06 0.000735806 -0.105 3.37638e-06 0.000713482 -0.10125 3.44171e-06
0.000690175 -0.0975 3.50603e-06 0.000667655 -0.0937499 3.56937e-06 0.000645894 -0.0899999 3.60764e-06 0.000624856
-0.0862499 3.67037e-06 0.00060226 -0.0824999 3.73247e-06 0.000579575 -0.0787499 3.79357e-06 0.000557749 -0.0749999
3.8537e-06 0.00053675 -0.0712499 3.88703e-06 0.000516536 -0.0674999 3.94073e-06 0.000496186 -0.0637499 3.99299e-06
0.000476471 -0.0599999 4.04456e-06 0.000457527 -0.0562499 4.09549e-06 0.000439325 -0.0524999 4.14612e-06 0.000421825
-0.0487498 4.19401e-06 0.00040666 -0.0449998 4.24145e-06 0.000392024 -0.0412498 4.28847e-06 0.000377898 -0.0374998
4.33508e-06 0.000364266 -0.0337498 4.35441e-06 0.000351105 -0.0299998 4.39804e-06 0.000342357 -0.0262498 4.44151e-06
0.000333818 -0.0224998 4.48484e-06 0.000325484 -0.0187499 4.52802e-06 0.000317351 -0.0149999 4.54458e-06 0.000309412
-0.0112499 4.5761e-06 0.000305841 -0.0074999 4.60772e-06 0.000302309 -0.00374991 4.63945e-06 0.000298816 6.1191e-08
4.67127e-06 0.000295362 0.00375005 4.70199e-06 0.000291949 0.00750005 4.73036e-06 0.00028858 0.01125 4.75879e-06
0.00028525 0.015 4.78729e-06 0.000281956 0.01875 4.81585e-06 0.000278699 0.0225 4.83245e-06 0.000277572
0.02625 4.84701e-06 0.000276453 0.03 4.86165e-06 0.000275337 0.03375 4.87637e-06 0.000274227 0.0375
4.89118e-06 0.00027312 0.04125 4.89701e-06 0.000272577 0.045 4.90044e-06 0.000272038 0.04875 4.90391e-06
0.000271499 0.0525 4.90742e-06 0.000270962 0.05625 4.91097e-06 0.000270425 0.06 4.88634e-06 0.000270186
0.06375 4.87653e-06 0.000269948 0.0675 4.8667e-06 0.00026971 0.07125 4.85687e-06 0.000269473 0.075
4.84703e-06 0.000269236 0.07875 4.82202e-06 0.000269146 0.0825 4.79504e-06 0.000269058 0.08625 4.768e-06
0.000268969 0.09 4.74091e-06 0.000268881 0.09375 4.71375e-06 0.000268793 0.0975 4.66679e-06 0.000268755
0.10125 4.61821e-06 0.000268718 0.105 4.56951e-06 0.000268681 0.10875 4.52069e-06 0.000268644 0.1125
4.47176e-06 0.000268608 0.11625 4.3845e-06 0.000268583 0.12 4.30836e-06 0.00026856 0.12375 4.23203e-06
0.000268536 0.1275 4.15552e-06 0.000268513 0.13125 4.07882e-06 0.000268489 0.135 3.95742e-06 0.000268462
0.13875 3.84626e-06 0.000268436 0.1425 3.73483e-06 0.000268409 0.14625 3.62313e-06 0.000268383 0.15
3.51114e-06 0.000268356 0.15375 3.34912e-06 0.000268316 0.1575 3.19579e-06 0.000268275 0.16125 3.04209e-06
0.000268235 0.165 2.88802e-06 0.000268195 0.16875 2.73357e-06 0.000268154 0.1725 2.53448e-06 0.000268095
[...]
POINT_DATA 19282
FIELD attributes 3
age 1 19282 float
0 7.30248e-05 0.000146053 0.000219086 0.000292121 0.000365161 0.000554066 0.000742972 0.000931877 0.0011208 0.00130975
0.00149874 0.00168773 0.00187672 0.00206572 0.00225476 0.00244384 0.00263291 0.00282199 0.00301108 0.00320021
0.00338938 0.00357855 0.00376772 0.00395691 0.00414614 0.00433541 0.00452468 0.00471395 0.00490324 0.00509258
0.00528196 0.00547138 0.00566085 0.00585034 0.00603984 0.00622933 0.00641887 0.00660846 0.00679808 0.0069877
0.00717732 0.00736699 0.00755671 0.00774646 0.00793621 0.00812596 0.00831577 0.00850563 0.00869553 0.00888542
0.00907532 0.00926527 0.00945529 0.00964534 0.00983539 0.0100254 0.0102155 0.0104057 0.0105959 0.0107862
0.0109764 0.0111667 0.011357 0.0115474 0.0117378 0.0119282 0.0121187 0.0123092 0.0124998 0.0126904
0.012881 0.0130717 0.0132624 0.0134532 0.013644 0.0138348 0.0140257 0.0142167 0.0144077 0.0145987
0.0147898 0.0149809 0.0151721 0.0153634 0.0155547 0.0157459 0.0159373 0.0161288 0.0163203 0.0165119
0.0167034 0.0168951 0.0170869 0.0172787 0.0174705 0.0176624 0.0178543 0.0180464 0.0182386 0.0184307
0.0186229 0.0188152 0.0190076 0.0192001 0.0193926 0.0195852 0.0197778 0.0199706 0.0201635 0.0203564
0.0205493 0.0207422 0.0209351 0.0211281 0.0213212 0.0215145 0.0217078 0.0219012 0.0220946 0.0222882
0.022482 0.0226757 0.0228695 0.0230634 0.0232575 0.0234518 0.023646 0.0238403 0.0240347 0.0242294
0.0244242 0.024619 0.0248139 0.0250088 0.0252041 0.0253995 0.0255949 0.0257904 0.025986 0.0261819
0.026378 0.0265741 0.0267703 0.0269666 0.0271632 0.02736 0.0275569 0.0277538 0.0279508 0.0281482
0.0283459 0.0285436 0.0287413 0.0289392 0.0291375 0.0293361 0.0295347 0.0297333 0.0299322 0.0301314
0.030331 0.0305306 0.0307302 0.0309301 0.0311304 0.0313311 0.0315318 0.0317326 0.0319336 0.0321351
0.032337 0.0325389 0.0327409 0.0329431 0.0331459 0.0333491 0.0335524 0.0337557 0.0339593 0.0341634
0.0343681 0.0345728 0.0347775 0.0349826 0.0351882 0.0353944 0.0356006 0.0358068 0.0360134 0.0362207
0.0364284 0.0366368 0.0368458 0.0370552 0.0372646 0.037474 0.037684 0.0378946 0.0381055 0.0383165
0.0385274 0.0387389 0.0389509 0.0391632 0.0393755 0.0395878 0.0398004 0.0400136 0.040227 0.0404402
0.0406534 0.0408669 0.0410806 0.0412945 0.0415082 0.0417217 0.0419353 0.0421488 0.0423622 0.0425754
0.0427883 0.0430009 0.043213 0.0434247 0.0436361 0.0438472 0.0440573 0.0442666 0.0444753 0.0446837
0.0448916 0.0450981 0.0453031 0.0455075 0.0457116 0.0459153 0.0461168 0.0463164 0.0465157 0.0467146
0.0469132 0.0471091 0.047303 0.0474968 0.0476904 0.0478837 0.0480737 0.0482623 0.0484509 0.0486394
0.0488279 0.0490128 0.0491971 0.0493815 0.0495661 0.0497508 0.0499321 0.0501136 0.0502953 0.0504772
0.0506594 0.0508394 0.0510196 0.0511999 0.0513805 0.0515612 0.0517411 0.0519212 0.0521013 0.0522816
0.0524619 0.0526423 0.0528227 0.0530033 0.0531839 0.0533646 0.0535453 0.0537261 0.0539069 0.0540877
0.0542688 0.0544499 0.054631 0.0548122 0.0549933 0.0551748 0.0553563 0.0555378 0.0557193 0.0559008
0.0560826 0.0562644 0.0564462 0.056628 0.0568098 0.0569919 0.057174 0.0573561 0.0575382 0.0577203
0.0579027 0.0580851 0.0582675 0.0584498 0.0586322 0.0588149 0.0589976 0.0591803 0.059363 0.0595457
0.0597286 0.0599116 0.0600946 0.0602776 0.0604606 0.0606439 0.0608272 0.0610104 0.0611937 0.061377
0.0615606 0.0617442 0.0619278 0.0621114 0.062295 0.0623518 0.0624085 0.0624653 0.0625221 0.0625793
0.0627064 0.0628334 0.0629604 0.0630874 0.0632144 0.0633985 0.0635827 0.0637668 0.063951 0.0641351
0.0643195 0.0645039 0.0646883 0.0648727 0.0650571 0.0652417 0.0654264 0.065611 0.0657956 0.0659802
0.0661651 0.0663499 0.0665347 0.0667195 0.0669044 0.0670894 0.0672745 0.0674597 0.0676449 0.06783
0.0680152 0.0682005 0.0683859 0.0685712 0.0687565 0.0689418 0.0691272 0.0693127 0.0694981 0.0696835
0.069869 0.0700546 0.0702401 0.0704256 0.0706112 0.0707968 0.0709824 0.0711681 0.0713537 0.0715393
0.071725 0.0719107 0.0720964 0.0722822 0.0724679 0.0726536 0.0728394 0.0730252 0.073211 0.0733967
0.0735825 0.0737684 0.0739542 0.07414 0.0743258 0.0745116 0.0746975 0.0748833 0.0750691 0.075255
0.0754408 0.0756267 0.0758125 0.0759983 0.0761841 0.07637 0.0765558 0.0767416 0.0769274 0.0771132
0.077299 0.0774848 0.0776705 0.0778563 0.0780421 0.0782279 0.0784136 0.0785993 0.078785 0.0789707
0.0791564 0.0793421 0.0795278 0.0797134 0.0798991 0.0800848 0.0802704 0.080456 0.0806417 0.0808273
0.081013 0.0811986 0.0813842 0.0815699 0.0817555 0.0819412 0.0821268 0.0823125 0.0824981 0.0826837
0.0828694 0.0830551 0.0832408 0.0834264 0.0836121 0.0837979 0.0839836 0.0841693 0.084355 0.0845407
0.0847265 0.0849123 0.085098 0.0852838 0.0854696 0.0856554 0.0858412 0.0860271 0.0862129 0.0863987
0.0865846 0.0867705 0.0869563 0.0871422 0.0873281 0.087514 0.0877 0.0878859 0.0880718 0.0882577
0.0884437 0.0886297 0.0888157 0.0890016 0.0891876 0.0893736 0.0895596 0.0897456 0.0899316 0.0901176
0.0903037 0.0904897 0.0906758 0.0908618 0.0910478 0.0912339 0.09142 0.0916061 0.0917921 0.0919782
0.0921643 0.0923504 0.0925365 0.0927226 0.0929087 0.0930948 0.093281 0.0934671 0.0936532 0.0938393
0.0940255 0.0942116 0.0943978 0.0945839 0.0947701 0.0949563 0.0951425 0.0953286 0.0955148 0.095701
0.0958872 0.0960734 0.0962597 0.0964459 0.0966321 0.0968183 0.0970046 0.0971909 0.0973772 0.0975634
0.0977497 0.097936 0.0981223 0.0983085 0.0984948 0.0986811 0.0988673 0.0990535 0.0992397 0.0994259
0.0996121 0.0997981 0.0999841 0.10017 0.100356 0.100542 0.100728 0.100914 0.1011 0.101286
0.101472 0.101658 0.101844 0.10203 0.102216 0.102402 0.102588 0.102774 0.10296 0.103147
0.103333 0.10352 0.103707 0.103894 0.104081 0.104268 0.104456 0.104644 0.104832 0.105021
0.105209 0.105398 0.105588 0.105778 0.105968 0.105996 0.106025 0.106054 0.106083 0.106132
0.106291 0.106449 0.106608 0.106767 0.106926 0.107118 0.107311 0.107505 0.107699 0.107893
0.108087 0.108283 0.108479 0.108674 0.10887 0.109066 0.109263 0.10946 0.109657 0.109854
0.110051 0.110249 0.110447 0.110645 0.110843 0.111041 0.111239 0.111437 0.111635 0.111833
0.112031 0.112229 0.112427 0.112625 0.112823 0.113021 0.113219 0.113417 0.113615 0.113813
0.114011 0.114209 0.114406 0.114604 0.114801 0.114999 0.115196 0.115393 0.11559 0.115787
0.115984 0.116181 0.116378 0.116574 0.116771 0.116967 0.117163 0.117359 0.117555 0.11775
0.117946 0.118141 0.118337 0.118532 0.118727 0.118921 0.119116 0.11931 0.119505 0.119699
0.119893 0.120087 0.12028 0.120474 0.120667 0.12086 0.121053 0.121246 0.121439 0.121632
0.121824 0.122017 0.122209 0.122401 0.122593 0.122785 0.122977 0.123168 0.12336 0.123551
0.123742 0.123934 0.124125 0.124316 0.124507 0.124697 0.124888 0.125079 0.125269 0.12546
0.12565 0.125841 0.126031 0.126221 0.126411 0.126601 0.126791 0.126981 0.127171 0.127361
0.127551 0.127741 0.12793 0.12812 0.12831 0.128499 0.128689 0.128878 0.129068 0.129257
0.129447 0.129636 0.129825 0.130015 0.130204 0.130393 0.130582 0.130772 0.130961 0.13115
0.131339 0.131528 0.131717 0.131906 0.132095 0.132284 0.132473 0.132662 0.132851 0.13304
0.133229 0.133418 0.133607 0.133796 0.133985 0.134173 0.134362 0.134551 0.13474 0.134928
0.135117 0.135306 0.135495 0.135683 0.135872 0.136061 0.136249 0.136438 0.136627 0.136815
0.137004 0.137193 0.137381 0.13757 0.137758 0.137947 0.138135 0.138324 0.138513 0.138701
0.13889 0.139078 0.139267 0.139455 0.139643 0.139832 0.14002 0.140209 0.140397 0.140586
0.140774 0.140962 0.141151 0.141339 0.141528 0.141716 0.141904 0.142093 0.142281 0.142469
0.142658 0.142846 0.143034 0.143223 0.143411 0.143599 0.143787 0.143976 0.144164 0.144352
0.14454 0.144729 0.144917 0.145105 0.145293 0.145481 0.14567 0.145858 0.146046 0.146234
0.146422 0.14661 0.146799 0.146987 0.147175 0.147363 0.147551 0.147739 0.147927 0.148116
0.148304 0.148492 0.14868 0.148868 0.149056 0.149244 0.149432 0.14962 0.149808 0.149996
0.150184 0.150372 0.15056 0.150748 0.150937 0.151124 0.151313 0.151501 0.151689 0.151877
0.152252 0.152628 0.153004 0.15338 0.153756 0.154507 0.155258 0.156009 0.156759 0.15751
0.159011 0.160511 0.162011 0.163512 0.165012 0.166512 0.168012 0.169512 0.171013 0.172513
0.175513 0.178514 0.181514 0.184514 0.187515 0.193515 0.199515 0.205515 0.211515 0.217515
0.223515 0.229516 0.235516 0.241516 0.247516 0.253516 0.259516 0.265516 0.271516 0.277516
0.283516 0.289516 0.295516 0.301516 0.307516 0.313516 0.319516 0.325516 0.331516 0.337516
0.343516 0.349517 0.355517 0.361517 0.367517 0.373517 0.379517 0.385517 0.391517 0.397517
0.403517 0.409549 0.409646 0 7.37111e-05 0.000147426 0.000221145 0.000294868 0.000368595 0.000559281
0.000750001 0.000940755 0.00113154 0.00132237 0.00151322 0.00170412 0.00189505 0.00208601 0.00227701 0.00246805
0.00265912 0.00285023 0.00304139 0.00323258 0.0034238 0.00361507 0.00380638 0.00399773 0.00418913 0.00438056
0.00457204 0.00476356 0.00495512 0.00514673 0.00533838 0.00553008 0.00572183 0.00591363 0.00610547 0.00629736
0.0064893 0.00668129 0.00687333 0.00706542 0.00725756 0.00744976 0.00764201 0.00783432 0.00802668 0.00821909
0.00841156 0.0086041 0.00879669 0.00898934 0.00918204 0.00937482 0.00956765 0.00976055 0.00995351 0.0101465
0.0103396 0.0105328 0.010726 0.0109193 0.0111127 0.0113061 0.0114996 0.0116932 0.0118869 0.0120806
0.0122744 0.0124683 0.0126623 0.0128563 0.0130504 0.0132446 0.0134389 0.0136333 0.0138278 0.0140224
0.014217 0.0144117 0.0146066 0.0148015 0.0149965 0.0151917 0.0153869 0.0155822 0.0157776 0.0159732
0.0161688 0.0163646 0.0165604 0.0167564 0.0169525 0.0171487 0.017345 0.0175414 0.017738 0.0179346
0.0181315 0.0183284 0.0185255 0.0187227 0.01892 0.0191175 0.0193151 0.0195128 0.0197107 0.0199088
0.020107 0.0203053 0.0205038 0.0207025 0.0209013 0.0211003 0.0212995 0.0214988 0.0216983 0.021898
0.0220979 0.0222979 0.0224982 0.0226986 0.0228992 0.0231001 0.0233011 0.0235023 0.0237038 0.0239054
0.0241073 0.0243094 0.0245118 0.0247144 0.0249172 0.0251202 0.0253235 0.0255271 0.0257309 0.025935
0.0261393 0.0263439 0.0265488 0.026754 0.0269595 0.0271653 0.0273713 0.0275777 0.0277844 0.0279915
0.0281988 0.0284066 0.0286146 0.028823 0.0290318 0.0292409 0.0294504 0.0296604 0.0298707 0.0300814
0.0302925 0.030504 0.030716 0.0309284 0.0311413 0.0313546 0.0315685 0.0317828 0.0319975 0.0322128
0.0324287 0.032645 0.0328619 0.0330794 0.0332974 0.033516 0.0337352 0.0339551 0.0341755 0.0343966
0.0346184 0.0348408 0.035064 0.0352878 0.0355124 0.0357377 0.0359637 0.0361906 0.0364182 0.0366466
0.036876 0.0371062 0.0373372 0.0375692 0.037802 0.0380358 0.0382705 0.0385063 0.038743 0.0389808
0.0392197 0.0394596 0.0397007 0.0399429 0.0401862 0.0404306 0.0406762 0.040923 0.0411711 0.0414205
0.0416711 0.0419231 0.0421764 0.0424311 0.042687 0.0429441 0.0432023 0.0434619 0.0437233 0.0439858
0.0442497 0.0445147 0.0447809 0.045049 0.0453177 0.045587 0.0458568 0.0461273 0.0464003 0.0465348
0.0466693 0.0468037 0.0469381 0.0470198 0.0471689 0.0473178 0.0474666 0.0476153 0.0477649 0.0480374
0.0483081 0.0485771 0.0488442 0.0491145 0.0492677 0.0494197 0.0495703 0.0497198 0.0498333 0.0499494
0.0500647 0.0501793 0.0502931 0.0504072 0.0506565 0.0509007 0.0511398 0.0513742 0.0516051 0.0516239
0.0516427 0.0516614 0.0516801 0.0516988 0.0519034 0.0521035 0.0522993 0.052491 0.0526767 0.0527914
0.0529043 0.0530155 0.0531252 0.0532635 0.0533357 0.0534073 0.0534782 0.0535485 0.0536178 0.0537934
0.0539654 0.0541339 0.0542991 0.0544578 0.0545993 0.0547391 0.0548775 0.0550142 0.055229 0.0552467
0.0552644 0.055282 0.0552997 0.0553202 0.0554495 0.0555782 0.0557064 0.055834 0.0559605 0.0561044
0.0562485 0.0563928 0.0565372 0.0566814 0.0568259 0.0569706 0.0571156 0.057261 0.0574068 0.0575529
0.0576994 0.0578463 0.0579936 0.0581412 0.0582892 0.0584375 0.0585861 0.058735 0.0588843 0.0590223
0.0591606 0.0592991 0.0594379 0.0595088 0.0595342 0.0595596 0.059585 0.0596105 0.0596359 0.0597872
0.0599387 0.0600906 0.0602428 0.0603952 0.0605481 0.0607012 0.0608547 0.0610085 0.0611626 0.061317
0.0614718 0.0616269 0.0617824 0.0619382 0.0620944 0.0622509 0.0624078 0.0625651 0.0627227 0.0628806
0.0630389 0.0631976 0.0633566 0.063516 0.0636758 0.0638359 0.0639964 0.0641573 0.0643185 0.0644801
0.064642 0.0648043 0.0649669 0.0651298 0.0652932 0.0654568 0.0656208 0.0657851 0.0659498 0.0661147
0.06628 0.0664456 0.0666115 0.0667777 0.0669442 0.067111 0.0672782 0.0674456 0.0676132 0.0677812
0.0679494 0.0681179 0.0682867 0.0684557 0.068625 0.0687945 0.0689643 0.0691344 0.0693046 0.0694752
0.0696459 0.0698168 0.069988 0.0701594 0.070331 0.0705028 0.0706749 0.0708471 0.0710195 0.0711922
0.071365 0.0715379 0.0717111 0.0718844 0.0720579 0.0722316 0.0724055 0.0725795 0.0727536 0.072928
0.0731024 0.073277 0.0734517 0.0736265 0.0738015 0.0739766 0.0741518 0.0743272 0.0745026 0.0746782
0.0748538 0.0750295 0.0752053 0.0753811 0.0755571 0.0757332 0.0759092 0.0760854 0.0762616 0.0764378
0.0766141 0.0767903 0.0769666 0.0771429 0.0773192 0.0774956 0.0776719 0.0778482 0.0780245 0.0782007
0.0783769 0.0785531 0.0787292 0.0789053 0.0790814 0.0792574 0.0794334 0.0796093 0.0797852 0.079961
0.0801367 0.0803124 0.080488 0.0806636 0.0808391 0.0810146 0.0811901 0.0813656 0.081541 0.0817164
0.0818918 0.0820672 0.0822426 0.0824181 0.0825936 0.0827691 0.0829447 0.0831203 0.083296 0.0834717
0.0836475 0.0838233 0.0839993 0.0841753 0.0843515 0.0845277 0.084704 0.0848805 0.085057 0.0852337
0.0854104 0.0855872 0.0857642 0.0859412 0.0861184 0.0862957 0.0864731 0.0866506 0.0868283 0.087006
0.0871838 0.0873617 0.0875397 0.0877179 0.0878961 0.0880745 0.0882529 0.0884315 0.0886102 0.0887889
0.0889677 0.0891466 0.0893256 0.0895047 0.0896839 0.0898632 0.0900426 0.0902221 0.0904016 0.0905813
0.090761 0.0909408 0.0911206 0.0913005 0.0914806 0.0916607 0.091841 0.0920213 0.0922017 0.0923821
0.0925626 0.0927432 0.0929239 0.0931046 0.0932855 0.0934664 0.0936474 0.0938286 0.0940097 0.094191
0.0943724 0.0945538 0.0947353 0.0949169 0.0950987 0.0952805 0.0954625 0.0956445 0.0958267 0.0960089
0.0961913 0.0963737 0.0965562 0.0967389 0.0969217 0.0971047 0.0972878 0.097471 0.0976542 0.0978377
0.0980212 0.0982048 0.0983884 0.0985722 0.0987565 0.0989408 0.0991249 0.0993089 0.0994928 0.0996758
0.0998582 0.10004 0.100222 0.100403 0.100584 0.100765 0.100945 0.101124 0.101303 0.101482
0.101661 0.10184 0.102018 0.102197 0.102375 0.102554 0.102734 0.102915 0.103096 0.103278
0.103461 0.103646 0.103832 0.10402 0.104126 0.104232 0.104339 0.104447 0.104559 0.104646
0.104733 0.104821 0.10491 0.104999 0.105202 0.105408 0.105618 0.105831 0.106049 0.10627
0.106496 0.106726 0.10696 0.107199 0.107442 0.10769 0.107943 0.1082 0.108462 0.108499
0.108537 0.108574 0.108611 0.10865 0.108883 0.109119 0.109359 0.109603 0.109851 0.110144
0.110444 0.110748 0.111059 0.111374 0.111696 0.112024 0.112358 0.112698 0.113043 0.113396
0.113755 0.114118 0.114487 0.11486 0.11524 0.115624 0.116011 0.116401 0.116792 0.117185
0.117576 0.117965 0.118353 0.118742 0.119131 0.119518 0.119903 0.120286 0.120666 0.121041
0.121412 0.121779 0.122143 0.122408 0.122428 0.122448 0.122468 0.122488 0.122508 0.122868
0.123223 0.123575 0.123922 0.124266 0.124607 0.124946 0.125282 0.125614 0.125944 0.12627
0.126594 0.126915 0.127234 0.12755 0.127691 0.127833 0.127973 0.128114 0.128267 0.128434
0.128601 0.128767 0.128932 0.129096 0.129398 0.129699 0.129998 0.130295 0.130589 0.130882
0.131173 0.131462 0.13175 0.132036 0.13232 0.132604 0.132886 0.133167 0.133446 0.133724
0.134002 0.134278 0.134553 0.134827 0.135084 0.135341 0.135597 0.135852 0.136173 0.136175
0.136177 0.13618 0.136182 0.136184 0.136452 0.13672 0.136988 0.137254 0.137519 0.137783
0.138047 0.13831 0.138573 0.138834 0.139095 0.139356 0.139616 0.139875 0.140134 0.140392
0.14065 0.140907 0.141164 0.141421 0.141677 0.141933 0.142189 0.142444 0.142699 0.142953
0.143208 0.143462 0.143716 0.143969 0.144223 0.144476 0.144729 0.144982 0.145235 0.145487
0.14574 0.145992 0.146244 0.146497 0.146748 0.147 0.147252 0.147504 0.147756 0.148007
0.148259 0.148511 0.148762 0.149014 0.149265 0.149516 0.149768 0.150019 0.150271 0.150522
0.150773 0.151025 0.151276 0.151528 0.151779 0.15203 0.152282 0.152533 0.152785 0.153036
0.153287 0.153539 0.15379 0.154042 0.154293 0.154544 0.154796 0.155047 0.155299 0.15555
0.155802 0.156053 0.156305 0.156556 0.156807 0.157059 0.15731 0.157562 0.157813 0.158064
0.158315 0.158566 0.158817 0.159068 0.159317 0.159567 0.159816 0.160065 0.160321 0.160327
0.160334 0.16034 0.160346 0.160352 0.160596 0.16084 0.161084 0.161327 0.16157 0.161815
0.162063 0.16231 0.162556 0.1628 0.16304 0.163283 0.163525 0.163767 0.164007 0.164242
0.164481 0.164719 0.164956 0.165193 0.165424 0.16566 0.165894 0.166128 0.166361 0.166589
0.166821 0.167052 0.167283 0.167512 0.167738 0.167966 0.168195 0.168423 0.16865 0.168872
0.169098 0.169324 0.169549 0.169774 0.169994 0.170218 0.170441 0.170664 0.170887 0.171104
0.171326 0.171547 0.171768 0.171988 0.17242 0.172853 0.173284 0.173708 0.17412 0.174917
0.175713 0.176508 0.177301 0.178092 0.179625 0.181141 0.182658 0.184175 0.185691 0.187202
0.188715 0.190228 0.191741 0.193253 0.196271 0.199288 0.202305 0.205322 0.208338 0.214348
0.220357 0.226365 0.232374 0.238383 0.244385 0.250389 0.256392 0.262396 0.268399 0.274401
0.280404 0.286407 0.29241 0.298414 0.304415 0.310418 0.316421 0.322424 0.328427 0.334429
0.340432 0.346435 0.352438 0.358441 0.364442 0.370445 0.376448 0.382451 0.388454 0.394455
0.400458 0.406461 0.412463 0.418466 0.424468 0.430502 0.436567 0.442666 0.448796 0
7.36873e-05 0.000147379 0.000221076 0.000294778 0.000368484 0.000559116 0.000749781 0.00094048 0.00113121 0.00132198
0.00151278 0.00170361 0.00189448 0.00208538 0.00227632 0.0024673 0.00265831 0.00284936 0.00304044 0.00323157
0.00342273 0.00361393 0.00380517 0.00399646 0.00418778 0.00437914 0.00457055 0.00476199 0.00495349 0.00514502
0.0053366 0.00552822 0.00571989 0.00591161 0.00610337 0.00629518 0.00648704 0.00667894 0.0068709 0.00706291
0.00725496 0.00744707 0.00763923 0.00783144 0.00802371 0.00821603 0.00840841 0.00860085 0.00879334 0.00898589
0.0091785 0.00937116 0.00956389 0.00975668 0.00994953 0.0101424 0.0103354 0.0105285 0.0107216 0.0109148
0.011108 0.0113013 0.0114947 0.0116882 0.0118817 0.0120753 0.012269 0.0124627 0.0126566 0.0128505
0.0130445 0.0132386 0.0134327 0.0136269 0.0138213 0.0140157 0.0142102 0.0144048 0.0145994 0.0147942
0.0149891 0.015184 0.0153791 0.0155742 0.0157695 0.0159648 0.0161603 0.0163559 0.0165515 0.0167473
0.0169432 0.0171392 0.0173353 0.0175316 0.0177279 0.0179244 0.018121 0.0183177 0.0185145 0.0187115
0.0189086 0.0191059 0.0193032 0.0195008 0.0196984 0.0198962 0.0200942 0.0202923 0.0204905 0.0206889
0.0208875 0.0210862 0.0212851 0.0214841 0.0216834 0.0218828 0.0220823 0.0222821 0.0224821 0.0226822
0.0228825 0.023083 0.0232837 0.0234846 0.0236858 0.0238871 0.0240887 0.0242904 0.0244924 0.0246947
0.0248971 0.0250998 0.0253028 0.025506 0.0257094 0.0259131 0.0261171 0.0263214 0.0265259 0.0267307
0.0269358 0.0271412 0.0273469 0.0275529 0.0277593 0.0279659 0.0281729 0.0283803 0.0285879 0.028796
0.0290044 0.0292132 0.0294223 0.0296319 0.0298419 0.0298659 0.0298899 0.0299139 0.0299379 0.0299616
0.0301483 0.0303353 0.0305226 0.0307103 0.0308984 0.031111 0.0313241 0.0315377 0.0317519 0.0319665
0.0321817 0.0323974 0.0326137 0.0328306 0.0330481 0.0332662 0.033485 0.0337044 0.0339245 0.0341453
0.0343668 0.0345892 0.0348122 0.0350361 0.0352608 0.0354863 0.0357128 0.0359401 0.0361684 0.0363977
0.036628 0.0368594 0.0370919 0.0373256 0.0375604 0.0377964 0.0380337 0.0382723 0.0385124 0.0387539
0.0389968 0.0392414 0.0394877 0.0397358 0.0399856 0.040237 0.0404905 0.040746 0.0410037 0.0412636
0.0415255 0.0417901 0.0420574 0.0423274 0.0426001 0.0428762 0.0431554 0.043438 0.043724 0.0440138
0.0443066 0.0446036 0.044905 0.0452108 0.0455223 0.0458362 0.0461548 0.0464783 0.0468066 0.0471454
0.0473564 0.0475697 0.0477851 0.0480022 0.0480752 0.048245 0.0484157 0.0485873 0.0487596 0.0489378
0.0492796 0.0496242 0.0499708 0.050316 0.0503954 0.0504913 0.0505869 0.0506824 0.0507776 0.0508758
0.0510993 0.0513201 0.051538 0.051753 0.0518854 0.0520756 0.0522626 0.0524466 0.0526275 0.0528181