# vtk DataFile Version 2.0
tracks
ASCII
DATASET POLYDATA
POINTS 19563 float
-1.001 1e-07 0.0011 -0.99955 1.007e-07 0.00110002 -0.9981 1.01405e-07 0.00110005 -0.99665 1.02116e-07
0.00110007 -0.9952 1.02833e-07 0.0011001 -0.99375 1.03555e-07 0.00110014 -0.99 1.05417e-07 0.00110024
-0.98625 1.073e-07 0.00110034 -0.9825 1.09183e-07 0.00110043 -0.97875 1.111e-07 0.00110054 -0.975
1.13084e-07 0.00110067 -0.97125 1.15113e-07 0.00110082 -0.9675 1.17165e-07 0.00110098 -0.96375 1.19217e-07
0.00110113 -0.96 1.21309e-07 0.00110128 -0.95625 1.2348e-07 0.00110144 -0.9525 1.25718e-07 0.00110162
-0.94875 1.27968e-07 0.00110179 -0.945 1.30219e-07 0.00110196 -0.94125 1.32512e-07 0.00110213 -0.9375
1.34883e-07 0.0011023 -0.93375 1.37309e-07 0.00110248 -0.93 1.39762e-07 0.00110266 -0.92625 1.42216e-07
0.00110284 -0.9225 1.4471e-07 0.00110302 -0.91875 1.47283e-07 0.0011032 -0.915 1.49905e-07 0.00110338
-0.91125 1.52558e-07 0.00110357 -0.9075 1.55213e-07 0.00110375 -0.90375 1.57893e-07 0.00110394 -0.9
1.60625e-07 0.00110413 -0.89625 1.63374e-07 0.00110433 -0.8925 1.662e-07 0.00110452 -0.88875 1.69069e-07
0.00110473 -0.885 1.71961e-07 0.00110493 -0.88125 1.74855e-07 0.00110513 -0.8775 1.77736e-07 0.00110534
-0.87375 1.80724e-07 0.00110555 -0.87 1.83806e-07 0.00110576 -0.86625 1.86936e-07 0.00110598 -0.8625
1.90069e-07 0.0011062 -0.85875 1.93188e-07 0.00110641 -0.855 1.96438e-07 0.00110663 -0.85125 1.99803e-07
0.00110686 -0.8475 2.03229e-07 0.00110709 -0.84375 2.06657e-07 0.00110732 -0.84 2.10041e-07 0.00110755
-0.83625 2.13562e-07 0.00110779 -0.8325 2.17174e-07 0.00110803 -0.82875 2.20835e-07 0.00110828 -0.825
2.24497e-07 0.00110852 -0.82125 2.28145e-07 0.00110877 -0.8175 2.31864e-07 0.00110902 -0.81375 2.35637e-07
0.00110928 -0.81 2.39438e-07 0.00110954 -0.80625 2.43242e-07 0.0011098 -0.8025 2.47031e-07 0.00111007
-0.79875 2.50884e-07 0.00111034 -0.795 2.54783e-07 0.00111061 -0.79125 2.58706e-07 0.00111089 -0.7875
2.62632e-07 0.00111117 -0.78375 2.66492e-07 0.00111145 -0.78 2.70487e-07 0.00111174 -0.77625 2.74546e-07
0.00111204 -0.7725 2.7864e-07 0.00111234 -0.76875 2.82736e-07 0.00111264 -0.765 2.86759e-07 0.00111294
-0.76125 2.90922e-07 0.00111324 -0.7575 2.95146e-07 0.00111356 -0.75375 2.99405e-07 0.00111388 -0.75
3.03666e-07 0.0011142 -0.74625 3.07911e-07 0.00111453 -0.7425 3.12236e-07 0.00111486 -0.73875 3.16616e-07
0.0011152 -0.735 3.21028e-07 0.00111554 -0.73125 3.25442e-07 0.00111588 -0.7275 3.29841e-07 0.00111623
-0.72375 3.34328e-07 0.00111658 -0.72 3.3888e-07 0.00111695 -0.71625 3.43468e-07 0.00111732 -0.7125
3.48058e-07 0.00111769 -0.70875 3.52633e-07 0.00111806 -0.705 3.57299e-07 0.00111844 -0.70125 3.62028e-07
0.00111883 -0.6975 3.66795e-07 0.00111922 -0.69375 3.71565e-07 0.00111962 -0.69 3.76214e-07 0.00112002
-0.68625 3.81067e-07 0.00112043 -0.6825 3.85993e-07 0.00112085 -0.67875 3.90961e-07 0.00112127 -0.675
3.95932e-07 0.0011217 -0.67125 4.00765e-07 0.00112212 -0.6675 4.05826e-07 0.00112256 -0.66375 4.10963e-07
0.00112301 -0.66 4.16145e-07 0.00112347 -0.65625 4.21331e-07 0.00112393 -0.6525 4.26503e-07 0.00112438
-0.64875 4.31765e-07 0.00112486 -0.645 4.37088e-07 0.00112534 -0.64125 4.42448e-07 0.00112583 -0.6375
4.47812e-07 0.00112632 -0.63375 4.52995e-07 0.00112681 -0.63 4.58463e-07 0.00112732 -0.62625 4.64016e-07
0.00112784 -0.6225 4.6962e-07 0.00112837 -0.61875 4.75229e-07 0.00112889 -0.615 4.80631e-07 0.00112942
-0.61125 4.86367e-07 0.00112996 -0.6075 4.92209e-07 0.00113052 -0.60375 4.98114e-07 0.00113109 -0.6
5.04026e-07 0.00113165 -0.59625 5.09699e-07 0.00113222 -0.5925 5.15642e-07 0.00113279 -0.58875 5.21592e-07
0.00113336 -0.585 5.27598e-07 0.00113393 -0.58125 5.33697e-07 0.00113452 -0.5775 5.39875e-07 0.00113513
-0.57375 5.46098e-07 0.00113574 -0.57 5.52327e-07 0.00113635 -0.56625 5.58622e-07 0.00113697 -0.5625
5.65022e-07 0.0011376 -0.55875 5.71515e-07 0.00113825 -0.555 5.78057e-07 0.0011389 -0.55125 5.84606e-07
0.00113956 -0.5475 5.9126e-07 0.00114022 -0.54375 5.98083e-07 0.0011409 -0.54 6.04704e-07 0.00114159
-0.53625 6.1174e-07 0.00114229 -0.5325 6.18786e-07 0.00114299 -0.52875 6.25964e-07 0.0011437 -0.525
6.33355e-07 0.00114442 -0.52125 6.40955e-07 0.00114517 -0.5175 6.48613e-07 0.00114591 -0.51375 6.56281e-07
0.00114665 -0.51 6.64063e-07 0.00114741 -0.50625 6.72022e-07 0.00114818 -0.5025 6.80158e-07 0.00114897
-0.49875 6.88358e-07 0.00114977 -0.495 6.9657e-07 0.00115056 -0.49125 7.04869e-07 0.00115136 -0.4875
7.13302e-07 0.00115218 -0.48375 7.21278e-07 0.00115302 -0.48 7.29918e-07 0.00115386 -0.47625 7.38572e-07
0.0011547 -0.4725 7.47323e-07 0.00115555 -0.46875 7.5622e-07 0.00115642 -0.465 7.64571e-07 0.0011573
-0.46125 7.73703e-07 0.00115818 -0.4575 7.82851e-07 0.00115907 -0.45375 7.92179e-07 0.00115996 -0.45
8.01782e-07 0.00116087 -0.44625 8.10844e-07 0.0011618 -0.4425 8.20828e-07 0.00116272 -0.43875 8.3083e-07
0.00116365 -0.435 8.41041e-07 0.00116458 -0.43125 8.51562e-07 0.00116552 -0.4275 8.6243e-07 0.00116648
-0.42375 8.73393e-07 0.00116743 -0.42 8.84378e-07 0.00116839 -0.41625 8.95531e-07 0.00116935 -0.4125
9.06925e-07 0.00117032 -0.40875 9.18614e-07 0.00117129 -0.405 9.30409e-07 0.00117226 -0.40125 9.4223e-07
0.00117323 -0.3975 9.54236e-07 0.0011742 -0.39375 9.66504e-07 0.00117517 -0.39 9.77667e-07 0.00117614
-0.38625 9.90387e-07 0.0011771 -0.3825 1.00314e-06 0.00117807 -0.37875 1.01612e-06 0.00117902 -0.375
1.02944e-06 0.00117996 -0.37125 1.04145e-06 0.00118088 -0.3675 1.05532e-06 0.0011818 -0.36375 1.06923e-06
0.00118272 -0.36 1.08344e-06 0.00118361 -0.35625 1.09804e-06 0.00118447 -0.3525 1.11318e-06 0.0011853
-0.34875 1.12847e-06 0.00118612 -0.345 1.1438e-06 0.00118695 -0.34125 1.15947e-06 0.00118773 -0.3375
1.17562e-06 0.00118845 -0.33375 1.18985e-06 0.0011891 -0.33 1.2068e-06 0.00118976 -0.32625 1.2238e-06
0.00119041 -0.3225 1.24119e-06 0.00119099 -0.31875 1.2591e-06 0.00119148 -0.315 1.27465e-06 0.00119186
-0.31125 1.2935e-06 0.00119224 -0.3075 1.31241e-06 0.00119262 -0.30375 1.33181e-06 0.00119289 -0.3
1.35189e-06 0.001193 -0.29625 1.36913e-06 0.00119296 -0.2925 1.39107e-06 0.00119268 -0.28875 1.41375e-06
0.00119218 -0.285 1.43698e-06 0.00119152 -0.28125 1.46027e-06 0.00119085 -0.2775 1.48398e-06 0.00119019
-0.27375 1.50861e-06 0.00118919 -0.27 1.53399e-06 0.00118787 -0.26625 1.55992e-06 0.00118631 -0.2625
1.58591e-06 0.00118476 -0.25875 1.61241e-06 0.0011832 -0.255 1.63991e-06 0.00118118 -0.25125 1.66822e-06
0.00117868 -0.2475 1.6971e-06 0.00117585 -0.24375 1.72602e-06 0.00117304 -0.24 1.74846e-06 0.00117023
-0.23625 1.77908e-06 0.00116679 -0.2325 1.81059e-06 0.00116274 -0.22875 1.84268e-06 0.00115828 -0.225
1.87479e-06 0.00115384 -0.22125 1.90764e-06 0.00114942 -0.2175 1.94178e-06 0.00114415 -0.21375 1.97701e-06
0.00113804 -0.21 2.01291e-06 0.00113144 -0.20625 2.04879e-06 0.00112488 -0.2025 2.08559e-06 0.00111837
-0.19875 2.12389e-06 0.00111067 -0.195 2.16324e-06 0.00110179 -0.19125 2.20309e-06 0.00109233 -0.1875
2.24287e-06 0.00108298 -0.18375 2.27052e-06 0.00107371 -0.18 2.31201e-06 0.00106293 -0.17625 2.35435e-06
0.00105067 -0.1725 2.39694e-06 0.0010379 -0.16875 2.43935e-06 0.00102531 -0.165 2.46756e-06 0.00101289
-0.16125 2.51144e-06 0.000998702 -0.1575 2.55579e-06 0.000982791 -0.15375 2.60006e-06 0.00096664 -0.15
2.64405e-06 0.000950783 -0.14625 2.6715e-06 0.000935211 -0.1425 2.71742e-06 0.000917647 -0.13875 2.76436e-06
0.000898149 -0.135 2.811e-06 0.000878897 -0.13125 2.85725e-06 0.000860095 -0.1275 2.90442e-06 0.000841727
-0.12375 2.95111e-06 0.000821275 -0.12 2.99744e-06 0.000799137 -0.11625 3.04328e-06 0.000777632 -0.1125
3.08867e-06 0.000756742 -0.10875 3.13484e-06 0.000736442 -0.105 3.18201e-06 0.000714076 -0.10125 3.22982e-06
0.000690703 -0.0975 3.27705e-06 0.000668121 -0.0937499 3.32372e-06 0.000646302 -0.0899999 3.34733e-06 0.000625211
-0.0862499 3.39068e-06 0.000602527 -0.0824999 3.43252e-06 0.000579745 -0.0787499 3.47391e-06 0.000557829 -0.0749999
3.51488e-06 0.000536747 -0.0712499 3.53177e-06 0.000516458 -0.0674999 3.56272e-06 0.000496018 -0.0637499 3.59209e-06
0.000476219 -0.0599999 3.62142e-06 0.000457198 -0.0562499 3.65074e-06 0.000438926 -0.0524999 3.68033e-06 0.000421363
-0.0487498 3.70162e-06 0.000406146 -0.0449998 3.72313e-06 0.000391461 -0.0412498 3.74484e-06 0.000377291 -0.0374998
3.76677e-06 0.000363619 -0.0337498 3.76544e-06 0.000350423 -0.0299998 3.77815e-06 0.000341641 -0.0262498 3.79118e-06
0.000333071 -0.0224998 3.80453e-06 0.000324708 -0.0187499 3.81819e-06 0.000316547 -0.0149999 3.80971e-06 0.000308584
-0.0112499 3.80371e-06 0.000304985 -0.0074999 3.79798e-06 0.000301427 -0.00374991 3.79253e-06 0.000297909 6.11908e-08
3.78735e-06 0.000294431 0.00375005 3.78146e-06 0.000290993 0.00750005 3.7738e-06 0.0002876 0.01125 3.76639e-06
0.000284245 0.015 3.75923e-06 0.000280927 0.01875 3.75232e-06 0.000277648 0.0225 3.72463e-06 0.000276503
0.02625 3.69524e-06 0.000275366 0.03 3.66592e-06 0.000274233 0.03375 3.63666e-06 0.000273104 0.0375
3.60746e-06 0.00027198 0.04125 3.55901e-06 0.000271426 0.045 3.50859e-06 0.000270874 0.04875 3.45813e-06
0.000270323 0.0525 3.40761e-06 0.000269774 0.05625 3.35704e-06 0.000269225 0.06 3.27028e-06 0.000268975
0.06375 3.1935e-06 0.000268725 0.0675 3.11658e-06 0.000268476 0.07125 3.03949e-06 0.000268227 0.075
2.96226e-06 0.000267978 0.07875 2.854e-06 0.000267874 0.0825 2.74417e-06 0.000267771 0.08625 2.63409e-06
0.000267668 0.09 2.52376e-06 0.000267565 0.09375 2.41318e-06 0.000267462 0.0975 2.26472e-06 0.000267409
0.10125 2.11498e-06 0.000267357 0.105 1.96489e-06 0.000267305 0.10875 1.81445e-06 0.000267252 0.1125
1.66366e-06 0.0002672 0.11625 1.46303e-06 0.000267159 0.12 1.2661e-06 0.000267119 0.12375 1.06871e-06
0.000267079 0.1275 8.70855e-07 0.000267039 0.13125 6.7253e-07 0.000266998 0.133243 5.38024e-07 0.000266975
0.135236 4.04258e-07 0.000266951 0.137228 2.70323e-07 0.000266927 0.139221 1.36219e-07 0.000266904 0.141243
-3.13285e-14 0.00026688 0.142994 -1.1817e-07 0.000266859 0.144746 -2.36496e-07 0.000266838 0.146497 -3.54978e-07
[...]
POINT_DATA 19563
FIELD attributes 3
age 1 19563 float
0 7.30341e-05 0.000146072 0.000219113 0.000292159 0.000365208 0.000554137 0.000743067 0.000931997 0.00112094 0.00130992
0.00149893 0.00168795 0.00187696 0.00206599 0.00225506 0.00244416 0.00263326 0.00282236 0.00301148 0.00320064
0.00338983 0.00357903 0.00376822 0.00395744 0.00414669 0.00433599 0.00452529 0.00471459 0.00490391 0.00509327
0.00528267 0.00547213 0.00566162 0.00585114 0.00604067 0.00623019 0.00641976 0.00660938 0.00679903 0.00698867
0.00717832 0.00736802 0.00755777 0.00774755 0.00793734 0.00812712 0.00831695 0.00850685 0.00869677 0.0088867
0.00907663 0.00926661 0.00945666 0.00964674 0.00983682 0.0100269 0.010217 0.0104073 0.0105975 0.0107878
0.010978 0.0111683 0.0113587 0.0115491 0.0117396 0.01193 0.0121205 0.0123111 0.0125017 0.0126923
0.012883 0.0130737 0.0132645 0.0134553 0.0136461 0.013837 0.0140279 0.0142189 0.01441 0.014601
0.0147921 0.0149833 0.0151745 0.0153658 0.0155571 0.0157485 0.0159399 0.0161314 0.016323 0.0165146
0.0167062 0.0168979 0.0170897 0.0172815 0.0174734 0.0176653 0.0178573 0.0180494 0.0182416 0.0184338
0.018626 0.0188184 0.0190108 0.0192034 0.0193959 0.0195885 0.0197812 0.019974 0.0201669 0.0203599
0.0205528 0.0207457 0.0209387 0.0211317 0.0213249 0.0215182 0.0217116 0.021905 0.0220984 0.0222921
0.0224859 0.0226797 0.0228735 0.0230674 0.0232616 0.0234559 0.0236502 0.0238445 0.024039 0.0242336
0.0244285 0.0246234 0.0248183 0.0250133 0.0252085 0.025404 0.0255995 0.025795 0.0259906 0.0261865
0.0263827 0.0265788 0.026775 0.0269713 0.027168 0.0273648 0.0275617 0.0277587 0.0279558 0.0281532
0.0283509 0.0285486 0.0287463 0.0289443 0.0291426 0.0293412 0.0295398 0.0297384 0.0299373 0.0301366
0.0303362 0.0305358 0.0307354 0.0309354 0.0311357 0.0313364 0.0315371 0.0317378 0.0319389 0.0321403
0.0323423 0.0325442 0.0327461 0.0329484 0.0331512 0.0333544 0.0335576 0.0337609 0.0339645 0.0341687
0.0343733 0.034578 0.0347826 0.0349877 0.0351933 0.0353995 0.0356057 0.0358119 0.0360185 0.0362257
0.0364334 0.0366418 0.0368508 0.0370601 0.0372695 0.0374789 0.0376888 0.0378993 0.0381103 0.0383212
0.0385321 0.0387435 0.0389555 0.0391678 0.0393801 0.0395923 0.039805 0.0400181 0.0402314 0.0404447
0.0406578 0.0408713 0.041085 0.0412989 0.0415126 0.0417261 0.0419396 0.0421532 0.0423666 0.0425798
0.0427927 0.0430053 0.0432174 0.0434292 0.0436406 0.0438517 0.0440619 0.0442712 0.04448 0.0446884
0.0448964 0.045103 0.045308 0.0455126 0.0457167 0.0459205 0.0461221 0.0463218 0.0465211 0.0467201
0.0469188 0.0471147 0.0473088 0.0475026 0.0476963 0.0478897 0.0480797 0.0482684 0.0484571 0.0486457
0.0488343 0.0490192 0.0492035 0.0493881 0.0495727 0.0497574 0.0499388 0.0501204 0.0503022 0.0504841
0.0506663 0.0508464 0.0510266 0.0512071 0.0513877 0.0515685 0.0517485 0.0519286 0.0521088 0.0522891
0.0524695 0.05265 0.0528305 0.0530111 0.0531918 0.0533726 0.0535534 0.0537342 0.0539151 0.054096
0.0542772 0.0544584 0.0546396 0.0548208 0.055002 0.0551836 0.0553651 0.0555467 0.0557282 0.0559098
0.0560917 0.0562736 0.0564554 0.0566373 0.0568192 0.0570014 0.0571836 0.0573657 0.0575479 0.0577301
0.0579126 0.058095 0.0582775 0.05846 0.0586425 0.0587396 0.0588367 0.0589338 0.0590309 0.0591295
0.0592148 0.0593002 0.0593856 0.0594709 0.0595563 0.0597394 0.0599225 0.0601055 0.0602886 0.0604717
0.060655 0.0608384 0.0610218 0.0612051 0.0613885 0.0615722 0.0617558 0.0619395 0.0621232 0.0623068
0.0624908 0.0626747 0.0628587 0.0630426 0.0632266 0.0634108 0.063595 0.0637792 0.0639634 0.0641476
0.0643321 0.0645166 0.064701 0.0648855 0.06507 0.0652547 0.0654393 0.065624 0.0658087 0.0659934
0.0661783 0.0663632 0.0665481 0.066733 0.0669179 0.067103 0.0672882 0.0674734 0.0676587 0.0678439
0.0680292 0.0682146 0.0684 0.0685853 0.0687707 0.0689561 0.0691417 0.0693272 0.0695127 0.0696982
0.0698838 0.0700694 0.070255 0.0704406 0.0706263 0.0708119 0.0709977 0.0711834 0.0713691 0.0715548
0.0717406 0.0719264 0.0721122 0.072298 0.0724838 0.0726696 0.0728555 0.0730414 0.0732272 0.0734131
0.073599 0.0737849 0.0739708 0.0741567 0.0743426 0.0745285 0.0747144 0.0749003 0.0750863 0.0752722
0.0754581 0.075644 0.0758299 0.0760158 0.0762017 0.0763877 0.0765736 0.0767594 0.0769453 0.0771312
0.0773171 0.0775029 0.0776888 0.0778746 0.0780604 0.0782463 0.0784321 0.0786179 0.0788037 0.0789894
0.0791753 0.079361 0.0795468 0.0797325 0.0799182 0.080104 0.0802897 0.0804755 0.0806612 0.0808469
0.0810327 0.0812184 0.0814041 0.0815898 0.0817756 0.0819613 0.0821471 0.0823328 0.0825185 0.0827043
0.0828901 0.0830758 0.0832616 0.0834474 0.0836331 0.083819 0.0840048 0.0841906 0.0843765 0.0845623
0.0847482 0.0849341 0.08512 0.0853058 0.0854917 0.0856777 0.0858636 0.0860496 0.0862355 0.0864215
0.0866075 0.0867935 0.0869796 0.0871656 0.0873516 0.0875377 0.0877238 0.0879099 0.0880959 0.088282
0.0884682 0.0886543 0.0888404 0.0890266 0.0892127 0.0893989 0.0895851 0.0897713 0.0899575 0.0901437
0.0903299 0.0905162 0.0907024 0.0908886 0.0910749 0.0912612 0.0914474 0.0916337 0.09182 0.0920063
0.0921926 0.0923789 0.0925652 0.0927515 0.0929378 0.0931241 0.0933105 0.0934968 0.0936831 0.0938695
0.0940558 0.0942422 0.0944285 0.0946149 0.0948013 0.0949876 0.095174 0.0953604 0.0955468 0.0957331
0.0959195 0.0961059 0.0962923 0.0964787 0.0966651 0.0968516 0.097038 0.0972244 0.0974109 0.0975973
0.0977837 0.0979702 0.0981567 0.0983431 0.0985296 0.0987161 0.0989026 0.0990891 0.0992756 0.0994621
0.0996487 0.0998353 0.100022 0.100209 0.100395 0.100582 0.100769 0.100956 0.101143 0.101329
0.101516 0.101704 0.101892 0.102079 0.102267 0.102455 0.102643 0.102832 0.103021 0.10321
0.103399 0.10359 0.103781 0.103972 0.104163 0.104354 0.104547 0.10474 0.104933 0.105127
0.10532 0.105516 0.105711 0.105907 0.106103 0.106299 0.106496 0.106693 0.106891 0.107088
0.107286 0.107485 0.107683 0.107882 0.10808 0.108279 0.108478 0.108677 0.108876 0.109075
0.109274 0.109473 0.109672 0.10987 0.110069 0.110268 0.110466 0.110665 0.110863 0.111061
0.111259 0.111457 0.111654 0.111852 0.112049 0.112247 0.112444 0.112641 0.112838 0.113034
0.113231 0.113427 0.113623 0.113819 0.114015 0.11421 0.114406 0.114601 0.114796 0.114991
0.115186 0.11538 0.115574 0.115768 0.115962 0.116156 0.11635 0.116543 0.116736 0.116929
0.117122 0.117315 0.117507 0.1177 0.117892 0.118084 0.118276 0.118468 0.118659 0.118851
0.119042 0.119233 0.119425 0.119616 0.119807 0.119997 0.120188 0.120379 0.120569 0.12076
0.12095 0.12114 0.121331 0.121521 0.121711 0.121901 0.122091 0.12228 0.12247 0.12266
0.12285 0.123039 0.123229 0.123418 0.123608 0.123797 0.123986 0.124176 0.124365 0.124554
0.124744 0.124933 0.125122 0.125311 0.1255 0.125689 0.125878 0.126067 0.126256 0.126445
0.126634 0.126823 0.127012 0.127201 0.127389 0.127578 0.127767 0.127956 0.128144 0.128333
0.128522 0.12871 0.128899 0.129088 0.129276 0.129465 0.129654 0.129842 0.130031 0.130219
0.130408 0.130596 0.130785 0.130973 0.131162 0.13135 0.131539 0.131727 0.131916 0.132104
0.132293 0.132481 0.132669 0.132858 0.133046 0.133234 0.133423 0.133611 0.133799 0.133988
0.134176 0.134364 0.134553 0.134741 0.134929 0.135117 0.135306 0.135494 0.135682 0.13587
0.136059 0.136247 0.136435 0.136623 0.136811 0.136999 0.137188 0.137376 0.137564 0.137752
0.13794 0.138128 0.138316 0.138505 0.138693 0.138881 0.139069 0.139257 0.139445 0.139633
0.139821 0.140009 0.140197 0.140385 0.140573 0.140761 0.140949 0.141137 0.141325 0.141513
0.141701 0.141889 0.142077 0.142265 0.142453 0.142641 0.142829 0.143017 0.143205 0.143393
0.143581 0.143769 0.143957 0.144145 0.144333 0.144521 0.144709 0.144897 0.145085 0.145272
0.14546 0.145648 0.145836 0.146024 0.146212 0.1464 0.146588 0.146776 0.146963 0.147151
0.147339 0.147527 0.147715 0.147903 0.148091 0.148278 0.148466 0.148654 0.148842 0.14903
0.149218 0.149405 0.149593 0.149781 0.149969 0.150157 0.150345 0.150532 0.15072 0.150908
0.151096 0.151284 0.151471 0.151659 0.151847 0.152222 0.152598 0.152973 0.153349 0.153724
0.154475 0.155225 0.155975 0.156726 0.157476 0.158976 0.160477 0.161977 0.163477 0.164977
0.166477 0.167978 0.169478 0.170978 0.172478 0.175478 0.178478 0.181479 0.184479 0.187479
0.193479 0.199479 0.205479 0.211479 0.217479 0.223479 0.229479 0.235479 0.241479 0.24748
0.25348 0.25948 0.26548 0.27148 0.27748 0.28348 0.28948 0.29548 0.30148 0.30748
0.31348 0.31948 0.32548 0.33148 0.33748 0.34348 0.34948 0.35548 0.36148 0.36748
0.37348 0.37948 0.385481 0.391481 0.397481 0.403481 0.409503 0.415547 0.421613 0.427702
0 7.37328e-05 0.00014747 0.00022121 0.000294955 0.000368704 0.000559447 0.000750224 0.000941036 0.00113188
0.00132276 0.00151368 0.00170463 0.00189562 0.00208664 0.00227771 0.0024688 0.00265994 0.00285111 0.00304233
0.00323358 0.00342487 0.0036162 0.00380758 0.00399899 0.00419045 0.00438195 0.00457349 0.00476508 0.00495671
0.00514839 0.00534011 0.00553188 0.00572369 0.00591556 0.00610747 0.00629943 0.00649144 0.0066835 0.00687562
0.00706778 0.00726 0.00745227 0.00764459 0.00783697 0.00802941 0.0082219 0.00841445 0.00860706 0.00879973
0.00899246 0.00918524 0.00937809 0.00957101 0.00976398 0.00995703 0.0101501 0.0103433 0.0105365 0.0107299
0.0109232 0.0111167 0.0113102 0.0115038 0.0116975 0.0118912 0.012085 0.0122789 0.0124729 0.012667
0.0128611 0.0130553 0.0132497 0.013444 0.0136385 0.0138331 0.0140277 0.0142225 0.0144173 0.0146123
0.0148073 0.0150024 0.0151977 0.015393 0.0155884 0.0157839 0.0159796 0.0161753 0.0163712 0.0165671
0.0167632 0.0169594 0.0171557 0.0173521 0.0175487 0.0177454 0.0179421 0.0181391 0.0183361 0.0185333
0.0187306 0.0189281 0.0191256 0.0193234 0.0195213 0.0197193 0.0199174 0.0201158 0.0203142 0.0205129
0.0207117 0.0209106 0.0211097 0.021309 0.0215085 0.0217081 0.0219079 0.0221079 0.0223081 0.0225085
0.0227091 0.0229098 0.0231108 0.0233119 0.0235133 0.0237149 0.0239167 0.0241187 0.024321 0.0245234
0.0247261 0.0249291 0.0251323 0.0253357 0.0255394 0.0257434 0.0259476 0.026152 0.0263568 0.0265618
0.0267672 0.0269728 0.0271787 0.0273849 0.0275915 0.0277983 0.0280055 0.028213 0.0284208 0.028629
0.0288376 0.0290464 0.0292557 0.0294654 0.0296754 0.0298859 0.0300967 0.0303079 0.0305196 0.0307317
0.0309443 0.0311573 0.0313707 0.0315847 0.0317991 0.032014 0.0322294 0.0324454 0.0326619 0.0328789
0.0330965 0.0333147 0.0335334 0.0337527 0.0339727 0.0341933 0.0344145 0.0346364 0.034859 0.0350823
0.0353063 0.035531 0.0357564 0.0359827 0.0362097 0.0364375 0.0366661 0.0368957 0.0371261 0.0373574
0.0375896 0.0378227 0.0380568 0.0382919 0.0385279 0.038765 0.0390032 0.0392425 0.0394829 0.0397245
0.0399671 0.040211 0.0404559 0.0407021 0.0409496 0.0411984 0.0414484 0.0416998 0.0419526 0.0422068
0.0424623 0.0427191 0.0429771 0.0432364 0.043497 0.0437594 0.0440231 0.044288 0.0445541 0.0448214
0.0450907 0.0453606 0.0456311 0.0459022 0.0461739 0.0464482 0.0465878 0.0467275 0.046867 0.0470065
0.0470895 0.0472354 0.0473812 0.0475269 0.0476724 0.0478188 0.0480925 0.0483643 0.0486344 0.0489026
0.049174 0.0493292 0.049483 0.0496356 0.0497869 0.0499016 0.0500169 0.0501314 0.0502452 0.0503584
0.0504717 0.050722 0.050967 0.051207 0.0514422 0.0516739 0.0516927 0.0517116 0.0517303 0.051749
0.0517678 0.0519731 0.0521739 0.0523704 0.0525627 0.052749 0.0528634 0.0529761 0.053087 0.0531965
0.0533345 0.0534075 0.0534799 0.0535517 0.0536229 0.053693 0.0538691 0.0540416 0.0542105 0.0543762
0.0545354 0.054676 0.0548151 0.0549526 0.0550886 0.0553089 0.0553246 0.0553403 0.055356 0.0553716
0.0553896 0.0555214 0.0556527 0.0557834 0.0559136 0.0560425 0.0561769 0.0563114 0.0564461 0.0565809
0.0566229 0.0566515 0.05668 0.0567085 0.0567371 0.0567656 0.0569105 0.0570556 0.0572011 0.0573469
0.0574931 0.0576397 0.0577866 0.057934 0.0580817 0.0582298 0.0583782 0.0585269 0.058676 0.0588254
0.0589752 0.0591253 0.0592757 0.0594265 0.0595776 0.0597291 0.0598808 0.0600329 0.0601852 0.0603379
0.060491 0.0606443 0.060798 0.060952 0.0611064 0.061261 0.0614161 0.0615714 0.0617271 0.0618832
0.0620396 0.0621963 0.0623535 0.062511 0.0626688 0.0628271 0.0629857 0.0631446 0.0633039 0.0634636
0.0636237 0.0637841 0.0639449 0.0641061 0.0642676 0.0644296 0.0645918 0.0647544 0.0649174 0.0650807
0.0652444 0.0654084 0.0655728 0.0657375 0.0659026 0.066068 0.0662337 0.0663998 0.0665661 0.0667328
0.0668998 0.0670671 0.0672347 0.0674027 0.0675709 0.0677394 0.0679082 0.0680773 0.0682466 0.0684162
0.0685861 0.0687563 0.0689267 0.0690974 0.0692684 0.0694396 0.0696111 0.0697827 0.0699546 0.0701268
0.0702991 0.0704718 0.0706446 0.0708176 0.0709909 0.0711644 0.0713381 0.0715119 0.0716859 0.0718602
0.0720346 0.0722092 0.072384 0.072559 0.0727341 0.0729094 0.0730849 0.0732604 0.0734361 0.073612
0.073788 0.0739641 0.0741404 0.0743168 0.0744933 0.0746699 0.0748467 0.0750235 0.0752003 0.0753773
0.0755543 0.0757315 0.0759087 0.0760859 0.0762632 0.0764406 0.076618 0.0767954 0.0769728 0.0771502
0.0773277 0.0775052 0.0776826 0.0778601 0.0780376 0.078215 0.0783924 0.0785698 0.0787471 0.0789243
0.0791015 0.0792788 0.0794559 0.079633 0.0798101 0.0799871 0.0801641 0.080341 0.0805178 0.0806946
0.0808713 0.0810481 0.0812248 0.0814015 0.0815782 0.0817549 0.0819316 0.0821083 0.0822849 0.0824617
0.0826384 0.0828153 0.0829922 0.0831691 0.0833462 0.0835233 0.0837005 0.0838777 0.0840551 0.0842326
0.0844101 0.0845879 0.0847657 0.0849438 0.0851219 0.0853002 0.0854786 0.0856571 0.0858357 0.0860145
0.0861934 0.0863726 0.0865518 0.0867313 0.0869108 0.0870905 0.0872704 0.0874504 0.0876305 0.0878107
0.0879911 0.0881717 0.0883524 0.0885333 0.0887143 0.0888955 0.0890767 0.0892581 0.0894396 0.0896213
0.0898031 0.089985 0.0901671 0.0903493 0.0905316 0.0907141 0.0908966 0.0910793 0.0912621 0.0914449
0.0916279 0.0918111 0.0919943 0.0921777 0.0923611 0.0925447 0.0927283 0.092912 0.0930958 0.0932797
0.0934637 0.0936478 0.093832 0.0940163 0.0942006 0.0943851 0.0945696 0.0947542 0.0949389 0.0951236
0.0953084 0.0954933 0.0956783 0.0958634 0.0960485 0.0962337 0.0964189 0.0966042 0.0967896 0.096975
0.0971605 0.0973461 0.0975318 0.0977175 0.0979033 0.0980892 0.0982752 0.0984613 0.0986474 0.0988337
0.09902 0.0992068 0.0993937 0.0995806 0.0997675 0.0999545 0.100141 0.100327 0.100513 0.1007
0.100886 0.101073 0.10126 0.101448 0.101636 0.101825 0.102014 0.102205 0.102398 0.102592
0.102788 0.102985 0.103185 0.103388 0.103593 0.103802 0.104014 0.10423 0.104449 0.104673
0.104902 0.105135 0.105373 0.105617 0.105865 0.10612 0.106177 0.106234 0.106292 0.106349
0.106409 0.106616 0.106827 0.107042 0.107261 0.107483 0.107774 0.10807 0.108373 0.108682
0.108998 0.109323 0.109655 0.109994 0.110341 0.110694 0.111055 0.111423 0.111798 0.112179
0.112567 0.112962 0.11336 0.113762 0.114167 0.114575 0.114987 0.115399 0.115812 0.116223
0.116635 0.117044 0.117449 0.117849 0.118247 0.118645 0.118871 0.119095 0.119318 0.119539
0.119739 0.119907 0.120074 0.12024 0.120405 0.12057 0.120944 0.121314 0.12168 0.122042
0.122399 0.122753 0.123102 0.123448 0.12379 0.124129 0.124334 0.124537 0.12474 0.124942
0.125171 0.125292 0.125414 0.125534 0.125654 0.125774 0.126094 0.126412 0.126727 0.127039
0.127347 0.127653 0.127957 0.128259 0.128558 0.128855 0.12915 0.129443 0.129734 0.130024
0.130311 0.130597 0.130882 0.131165 0.131447 0.131727 0.131826 0.131924 0.132023 0.132122
0.13223 0.132407 0.132583 0.132758 0.132933 0.133107 0.133379 0.13365 0.13392 0.134189
0.134457 0.134724 0.13499 0.135255 0.135519 0.135783 0.136045 0.136307 0.136568 0.136829
0.137089 0.137348 0.137607 0.137865 0.138123 0.13838 0.138636 0.138893 0.139148 0.139404
0.139659 0.139914 0.140168 0.140422 0.140675 0.140929 0.141182 0.141435 0.141688 0.14194
0.142192 0.142444 0.142696 0.142947 0.143199 0.14345 0.143701 0.143952 0.144202 0.144453
0.144704 0.144954 0.145204 0.145454 0.145704 0.145953 0.146203 0.146452 0.146702 0.146951
0.1472 0.147449 0.147698 0.147947 0.148195 0.148444 0.148692 0.14894 0.149189 0.149437
0.149685 0.149932 0.15018 0.150427 0.150675 0.150922 0.150985 0.151048 0.151112 0.151175
0.151241 0.151424 0.151606 0.151789 0.15197 0.152151 0.152392 0.152634 0.152874 0.153113
0.153351 0.153586 0.153821 0.154056 0.154289 0.154521 0.154751 0.154981 0.15521 0.155439
0.155666 0.155891 0.156117 0.156342 0.156566 0.15679 0.157011 0.157233 0.157454 0.157675
0.157895 0.158113 0.158332 0.15855 0.158767 0.158984 0.159199 0.159415 0.15963 0.159845
0.16006 0.160272 0.160485 0.160698 0.16091 0.161123 0.161332 0.161544 0.161755 0.161966
0.162176 0.162384 0.162593 0.162802 0.163011 0.163219 0.163425 0.163633 0.16384 0.164047
0.164254 0.164458 0.164664 0.16487 0.165076 0.165281 0.165484 0.165689 0.165893 0.166098
0.166302 0.166503 0.166707 0.16691 0.167113 0.167316 0.167517 0.167719 0.167921 0.168123
0.168325 0.168524 0.168726 0.168927 0.169128 0.169329 0.169528 0.169728 0.169928 0.170128
0.170328 0.170526 0.170726 0.170925 0.171124 0.171324 0.171718 0.172113 0.172508 0.172903
0.173294 0.174062 0.17483 0.175597 0.176364 0.17713 0.178643 0.18015 0.181657 0.183164
0.18467 0.186175 0.187681 0.189186 0.190691 0.192196 0.195203 0.198211 0.201218 0.204226
0.207233 0.213237 0.219242 0.225246 0.23125 0.237255 0.243256 0.249258 0.25526 0.261262
0.267263 0.273265 0.279266 0.285268 0.29127 0.297271 0.303272 0.309274 0.315276 0.321277
0.327279 0.33328 0.339281 0.345283 0.351285 0.357286 0.363287 0.369289 0.37529 0.381292
0.387293 0.393294 0.399296 0.405297 0.411299 0.4173 0.423301 0.429325 0.43537 0.441438
0.447528 0 7.37093e-05 0.000147423 0.000221142 0.000294866 0.000368594 0.000559284 0.000750007 0.000940764
0.00113156 0.00132238 0.00151324 0.00170413 0.00189506 0.00208603 0.00227703 0.00246806 0.00265914 0.00285025
0.0030414 0.00323259 0.00342382 0.00361508 0.00380639 0.00399774 0.00418913 0.00438056 0.00457203 0.00476355
0.00495511 0.00514671 0.00533836 0.00553006 0.0057218 0.00591358 0.00610542 0.0062973 0.00648923 0.00668121
0.00687325 0.00706533 0.00725746 0.00744964 0.00764188 0.00783418 0.00802652 0.00821892 0.00841138 0.0086039
0.00879647 0.00898911 0.0091818 0.00937455 0.00956736 0.00976024 0.00995318 0.0101462 0.0103392 0.0105324
0.0107256 0.0109189 0.0111122 0.0113056 0.0114991 0.0116926 0.0118863 0.01208 0.0122737 0.0124676
0.0126615 0.0128555 0.0130496 0.0132438 0.0134381 0.0136324 0.0138268 0.0140214 0.014216 0.0144107
0.0146054 0.0148003 0.0149953 0.0151904 0.0153855 0.0155808 0.0157762 0.0159716 0.0161672 0.0163629
0.0165587 0.0167546 0.0169506 0.0171467 0.017343 0.0175393 0.0177358 0.0179324 0.0181291 0.018326
0.018523 0.0187201 0.0189173 0.0191147 0.0193122 0.0195099 0.0197077 0.0199056 0.0201037 0.020302
0.0205004 0.0206989 0.0208976 0.0210965 0.0212956 0.0214948 0.0216942 0.0218937 0.0220934 0.0222934
0.0224935 0.0226938 0.0228942 0.0230949 0.0232958 0.0234969 0.0236982 0.0238997 0.0241014 0.0243034
0.0245056 0.024708 0.0249106 0.0251135 0.0253166 0.02552 0.0257236 0.0259275 0.0261317 0.0263362
0.0265409 0.0267459 0.0269512 0.0271568 0.0273627 0.0275689 0.0277755 0.0279823 0.0281895 0.0283971
0.028605 0.0288133 0.0290219 0.029231 0.0294404 0.0296502 0.0298605 0.0298847 0.0299089 0.0299331
0.0299573 0.0299811 0.0301679 0.030355 0.0305425 0.0307303 0.0309185 0.0311314 0.0313449 0.0315589
0.0317734 0.0319885 0.0322041 0.0324203 0.0326371 0.0328546 0.0330727 0.0332913 0.0335107 0.0337308
0.0339516 0.0341731 0.0343954 0.0346185 0.0348424 0.0350672 0.0352927 0.0355192 0.0357466 0.0359749
0.0362042 0.0364345 0.0366659 0.0368983 0.037132 0.0373668 0.0376027 0.0378398 0.0380783 0.0383181
0.0385593 0.0388019 0.039046 0.0392917 0.0395391 0.0397883 0.0400391 0.0402916 0.0405461 0.0408026
0.0410613 0.0413221 0.0415849 0.0418504 0.0421185 0.0423893 0.0426627 0.0429396 0.0432195 0.0435028
0.0437894 0.0440798 0.0443732 0.0446707 0.0449726 0.0452788 0.0455907 0.0459051 0.0462242 0.046548
0.0468767 0.0472158 0.0474329 0.0476525 0.0478742 0.0480976 0.0481705 0.0483359 0.0485021 0.0486691
0.0488368 0.04901 0.0493549 0.0497025 0.0500522 0.0504004 0.05048 0.0505738 0.0506674 0.0507608
0.050854 0.05095 0.0511756 0.0513984 0.0516184 0.0518354 0.0519686 0.0521575 0.0523433 0.052526
0.0527058 0.0528951 0.0529363 0.0529773 0.0530181 0.0530587 0.0530974 0.053298 0.0534929 0.0536828
0.0538679 0.0540383 0.0541573 0.0542746 0.0543898 0.0545023 0.0546148 0.054658 0.0547011 0.054744