# vtk DataFile Version 2.0
tracks
ASCII
DATASET POLYDATA
POINTS 19522 float
-1.001 1e-07 0.0011 -0.99955 9.81128e-08 0.00110002 -0.9981 9.62249e-08 0.00110004 -0.99665 9.43363e-08
0.00110007 -0.9952 9.2447e-08 0.0011001 -0.99375 9.05571e-08 0.00110014 -0.99 8.56499e-08 0.00110023
-0.98625 8.07582e-08 0.00110033 -0.9825 7.58651e-08 0.00110043 -0.97875 7.09571e-08 0.00110054 -0.975
6.60213e-08 0.00110067 -0.97125 6.10454e-08 0.00110082 -0.9675 5.60801e-08 0.00110097 -0.96375 5.11132e-08
0.00110112 -0.96 4.61294e-08 0.00110127 -0.95625 4.11142e-08 0.00110144 -0.9525 3.60638e-08 0.0011016
-0.94875 3.10153e-08 0.00110177 -0.945 2.59652e-08 0.00110194 -0.94125 2.08945e-08 0.00110211 -0.9375
1.57855e-08 0.00110229 -0.935201 1.26284e-08 0.0011024 -0.932903 9.47249e-09 0.0011025 -0.930604 6.31588e-09
0.00110261 -0.928305 3.15859e-09 0.00110272 -0.926006 1.77017e-17 0.00110283 -0.924555 -2.00584e-09 0.0011029
-0.923104 -4.01977e-09 0.00110297 -0.921652 -6.04181e-09 0.00110304 -0.920201 -8.07195e-09 0.00110311 -0.91875
-1.01102e-08 0.00110318 -0.915 -1.53973e-08 0.00110336 -0.91125 -2.06872e-08 0.00110355 -0.9075 -2.59791e-08
0.00110373 -0.90375 -3.13067e-08 0.00110392 -0.9 -3.67015e-08 0.00110411 -0.89625 -4.21607e-08 0.0011043
-0.8925 -4.76986e-08 0.0011045 -0.88875 -5.33123e-08 0.0011047 -0.885 -5.89665e-08 0.0011049 -0.88125
-6.46228e-08 0.0011051 -0.8775 -7.02681e-08 0.00110531 -0.87375 -7.60097e-08 0.00110551 -0.87 -8.18339e-08
0.00110573 -0.86625 -8.77025e-08 0.00110594 -0.8625 -9.35734e-08 0.00110616 -0.85875 -9.9427e-08 0.00110637
-0.855 -1.05394e-07 0.00110659 -0.85125 -1.11453e-07 0.00110682 -0.8475 -1.17562e-07 0.00110705 -0.84375
-1.23674e-07 0.00110728 -0.84 -1.29779e-07 0.00110751 -0.83625 -1.35993e-07 0.00110774 -0.8325 -1.42307e-07
0.00110798 -0.82875 -1.48674e-07 0.00110822 -0.825 -1.55044e-07 0.00110847 -0.82125 -1.61381e-07 0.00110871
-0.8175 -1.67863e-07 0.00110896 -0.81375 -1.74451e-07 0.00110922 -0.81 -1.81098e-07 0.00110948 -0.80625
-1.87749e-07 0.00110974 -0.8025 -1.94357e-07 0.00111 -0.79875 -2.01129e-07 0.00111027 -0.795 -2.08018e-07
0.00111054 -0.79125 -2.14971e-07 0.00111082 -0.7875 -2.21927e-07 0.0011111 -0.78375 -2.28872e-07 0.00111138
-0.78 -2.35956e-07 0.00111166 -0.77625 -2.43163e-07 0.00111196 -0.7725 -2.50437e-07 0.00111225 -0.76875
-2.57714e-07 0.00111255 -0.765 -2.6498e-07 0.00111285 -0.76125 -2.72386e-07 0.00111316 -0.7575 -2.79913e-07
0.00111347 -0.75375 -2.87508e-07 0.00111379 -0.75 -2.95107e-07 0.00111411 -0.74625 -3.02628e-07 0.00111443
-0.7425 -3.1036e-07 0.00111476 -0.73875 -3.18216e-07 0.0011151 -0.735 -3.26141e-07 0.00111544 -0.73125
-3.34072e-07 0.00111578 -0.7275 -3.41909e-07 0.00111613 -0.72375 -3.49986e-07 0.00111648 -0.72 -3.58198e-07
0.00111684 -0.71625 -3.66487e-07 0.00111721 -0.7125 -3.74781e-07 0.00111758 -0.70875 -3.82964e-07 0.00111795
-0.705 -3.91413e-07 0.00111832 -0.70125 -4.00005e-07 0.00111871 -0.6975 -4.08679e-07 0.00111911 -0.69375
-4.17359e-07 0.00111951 -0.69 -4.26024e-07 0.0011199 -0.68625 -4.34869e-07 0.00112031 -0.6825 -4.43863e-07
0.00112073 -0.67875 -4.52945e-07 0.00112115 -0.675 -4.62033e-07 0.00112158 -0.67125 -4.71106e-07 0.00112201
-0.6675 -4.80361e-07 0.00112244 -0.66375 -4.89766e-07 0.00112289 -0.66 -4.99257e-07 0.00112335 -0.65625
-5.08756e-07 0.00112381 -0.6525 -5.18069e-07 0.00112427 -0.64875 -5.27745e-07 0.00112474 -0.645 -5.37577e-07
0.00112523 -0.64125 -5.475e-07 0.00112572 -0.6375 -5.57432e-07 0.00112621 -0.63375 -5.67351e-07 0.0011267
-0.63 -5.77476e-07 0.00112721 -0.62625 -5.87771e-07 0.00112773 -0.6225 -5.98165e-07 0.00112826 -0.61875
-6.0857e-07 0.00112879 -0.615 -6.18962e-07 0.00112932 -0.61125 -6.29563e-07 0.00112987 -0.6075 -6.4033e-07
0.00113043 -0.60375 -6.51197e-07 0.001131 -0.6 -6.62076e-07 0.00113157 -0.59625 -6.72944e-07 0.00113214
-0.5925 -6.83871e-07 0.00113271 -0.58875 -6.94808e-07 0.00113328 -0.585 -7.05847e-07 0.00113386 -0.58125
-7.17052e-07 0.00113445 -0.5775 -7.28052e-07 0.00113507 -0.57375 -7.39467e-07 0.00113568 -0.57 -7.50895e-07
0.00113629 -0.56625 -7.62435e-07 0.00113692 -0.5625 -7.74156e-07 0.00113756 -0.55875 -7.85622e-07 0.00113822
-0.555 -7.97578e-07 0.00113887 -0.55125 -8.09547e-07 0.00113953 -0.5475 -8.2164e-07 0.0011402 -0.54375
-8.33928e-07 0.00114089 -0.54 -8.464e-07 0.0011416 -0.53625 -8.58949e-07 0.00114231 -0.5325 -8.71514e-07
0.00114301 -0.52875 -8.84207e-07 0.00114373 -0.525 -8.97101e-07 0.00114447 -0.52125 -9.0959e-07 0.00114523
-0.5175 -9.22762e-07 0.00114598 -0.51375 -9.35952e-07 0.00114674 -0.51 -9.49277e-07 0.00114751 -0.50625
-9.62813e-07 0.0011483 -0.5025 -9.75846e-07 0.00114911 -0.49875 -9.89685e-07 0.00114991 -0.495 -1.00354e-06
0.00115072 -0.49125 -1.01755e-06 0.00115154 -0.4875 -1.03179e-06 0.00115238 -0.48375 -1.04626e-06 0.00115324
-0.48 -1.06084e-06 0.0011541 -0.47625 -1.07544e-06 0.00115496 -0.4725 -1.0902e-06 0.00115583 -0.46875
-1.1052e-06 0.00115672 -0.465 -1.12046e-06 0.00115763 -0.46125 -1.13584e-06 0.00115854 -0.4575 -1.15125e-06
0.00115945 -0.45375 -1.16681e-06 0.00116036 -0.45 -1.1826e-06 0.0011613 -0.44625 -1.19866e-06 0.00116225
-0.4425 -1.21484e-06 0.0011632 -0.43875 -1.23106e-06 0.00116416 -0.435 -1.24743e-06 0.00116512 -0.43125
-1.26401e-06 0.00116609 -0.4275 -1.2794e-06 0.00116708 -0.42375 -1.2964e-06 0.00116807 -0.42 -1.31344e-06
0.00116906 -0.41625 -1.33065e-06 0.00117005 -0.4125 -1.34811e-06 0.00117105 -0.40875 -1.36412e-06 0.00117206
-0.405 -1.38206e-06 0.00117307 -0.40125 -1.40005e-06 0.00117408 -0.3975 -1.41823e-06 0.00117508 -0.39375
-1.4367e-06 0.00117609 -0.39 -1.45556e-06 0.00117709 -0.38625 -1.47459e-06 0.0011781 -0.3825 -1.49367e-06
0.00117911 -0.37875 -1.51298e-06 0.0011801 -0.375 -1.53259e-06 0.00118108 -0.37125 -1.55264e-06 0.00118204
-0.3675 -1.5729e-06 0.00118301 -0.36375 -1.59321e-06 0.00118398 -0.36 -1.61373e-06 0.00118492 -0.35625
-1.63454e-06 0.00118582 -0.3525 -1.65271e-06 0.00118669 -0.34875 -1.67421e-06 0.00118755 -0.345 -1.69577e-06
0.00118842 -0.34125 -1.71755e-06 0.00118924 -0.3375 -1.73961e-06 0.00119 -0.33375 -1.76221e-06 0.0011907
-0.33 -1.78506e-06 0.00119139 -0.32625 -1.80797e-06 0.00119208 -0.3225 -1.83113e-06 0.0011927 -0.31875
-1.85459e-06 0.00119322 -0.315 -1.87869e-06 0.00119363 -0.31125 -1.90308e-06 0.00119404 -0.3075 -1.92753e-06
0.00119446 -0.30375 -1.95219e-06 0.00119475 -0.3 -1.97712e-06 0.00119489 -0.29625 -1.99717e-06 0.00119488
-0.2925 -2.02321e-06 0.00119463 -0.28875 -2.04947e-06 0.00119414 -0.285 -2.07591e-06 0.00119348 -0.28125
-2.10241e-06 0.00119283 -0.2775 -2.12277e-06 0.00119217 -0.27375 -2.15026e-06 0.00119118 -0.27 -2.17791e-06
0.00118986 -0.26625 -2.20568e-06 0.00118829 -0.2625 -2.23353e-06 0.00118673 -0.25875 -2.25395e-06 0.00118516
-0.255 -2.28283e-06 0.00118312 -0.25125 -2.31178e-06 0.00118059 -0.2475 -2.34078e-06 0.00117773 -0.24375
-2.36984e-06 0.00117488 -0.24 -2.39977e-06 0.00117204 -0.23625 -2.42987e-06 0.00116856 -0.2325 -2.45986e-06
0.00116445 -0.22875 -2.48978e-06 0.00115993 -0.225 -2.51974e-06 0.00115543 -0.22125 -2.53897e-06 0.00115094
-0.2175 -2.56955e-06 0.0011456 -0.21375 -2.59961e-06 0.0011394 -0.21 -2.62935e-06 0.00113269 -0.20625
-2.65911e-06 0.00112603 -0.2025 -2.6763e-06 0.00111941 -0.19875 -2.70699e-06 0.00111158 -0.195 -2.73673e-06
0.00110256 -0.19125 -2.76596e-06 0.00109295 -0.1875 -2.7952e-06 0.00108344 -0.18375 -2.82532e-06 0.00107401
-0.18 -2.85403e-06 0.00106307 -0.17625 -2.88109e-06 0.00105062 -0.1725 -2.90746e-06 0.00103766 -0.16875
-2.93382e-06 0.00102488 -0.165 -2.96152e-06 0.00101227 -0.16125 -2.98684e-06 0.000997884 -0.1575 -3.00969e-06
0.000981755 -0.15375 -3.0319e-06 0.000965388 -0.15 -3.05414e-06 0.000949325 -0.14625 -3.07791e-06 0.000933555
-0.1425 -3.09723e-06 0.000915788 -0.13875 -3.11222e-06 0.000896086 -0.135 -3.127e-06 0.000876649 -0.13125
-3.14197e-06 0.00085767 -0.1275 -3.13675e-06 0.000839134 -0.12375 -3.14842e-06 0.000818532 -0.12 -3.15626e-06
0.000796276 -0.11625 -3.1645e-06 0.000774662 -0.1125 -3.17314e-06 0.00075367 -0.10875 -3.16091e-06 0.000733274
-0.105 -3.16308e-06 0.000710855 -0.10125 -3.16078e-06 0.000687475 -0.0975 -3.15924e-06 0.00066489 -0.0937499
-3.15846e-06 0.00064307 -0.0899999 -3.15938e-06 0.000621981 -0.0862499 -3.15468e-06 0.000599359 -0.0824999 -3.14863e-06
0.000576676 -0.0787499 -3.14357e-06 0.000554857 -0.0749999 -3.13947e-06 0.000533866 -0.0712499 -3.13694e-06 0.000513665
-0.0674999 -3.13236e-06 0.000493384 -0.0637499 -3.12838e-06 0.000473752 -0.0599999 -3.12535e-06 0.000454888 -0.0562499
-3.12324e-06 0.000436763 -0.0524999 -3.10156e-06 0.000419341 -0.0487498 -3.09183e-06 0.000404264 -0.0449998 -3.08307e-06
0.000389712 -0.0412498 -3.07525e-06 0.000375667 -0.0374998 -3.06834e-06 0.000362114 -0.0337498 -3.06239e-06 0.00034903
-0.0299998 -3.04696e-06 0.000340403 -0.0262498 -3.03224e-06 0.000331981 -0.0224998 -3.01823e-06 0.00032376 -0.0187499
-3.00491e-06 0.000315735 -0.0149999 -2.99192e-06 0.0003079 -0.0112499 -2.97428e-06 0.000304474 -0.0074999 -2.95691e-06
0.000301085 -0.00374991 -2.93981e-06 0.000297733 6.11911e-08 -2.92298e-06 0.000294416 0.00375005 -2.89084e-06 0.000291135
0.00750005 -2.87221e-06 0.000287895 0.01125 -2.85384e-06 0.000284689 0.015 -2.83573e-06 0.000281517 0.01875
-2.81787e-06 0.00027838 0.0225 -2.78572e-06 0.000277343 0.02625 -2.76489e-06 0.000276311 0.03 -2.74409e-06
0.000275283 0.03375 -2.72332e-06 0.000274259 0.0375 -2.70259e-06 0.000273239 0.04125 -2.66566e-06 0.000272751
0.045 -2.63791e-06 0.000272264 0.04875 -2.61014e-06 0.000271778 0.0525 -2.58234e-06 0.000271293 0.05625
-2.5545e-06 0.000270809 0.06 -2.51946e-06 0.00027061 0.06375 -2.48315e-06 0.000270411 0.0675 -2.44677e-06
0.000270213 0.07125 -2.41032e-06 0.000270015 0.075 -2.37379e-06 0.000269817 0.07875 -2.32318e-06 0.000269768
0.0825 -2.27858e-06 0.00026972 0.08625 -2.23388e-06 0.000269671 0.09 -2.18907e-06 0.000269623 0.09375
-2.14415e-06 0.000269575 0.0975 -2.08819e-06 0.000269577 0.10125 -2.03731e-06 0.00026958 0.105 -1.98631e-06
0.000269583 0.10875 -1.93519e-06 0.000269587 0.1125 -1.88394e-06 0.00026959 0.11625 -1.83424e-06 0.000269605
[...]
POINT_DATA 19522
FIELD attributes 3
age 1 19522 float
0 7.30127e-05 0.000146029 0.000219049 0.000292073 0.0003651 0.000553973 0.000742847 0.00093172 0.00112061 0.00130953
0.00149849 0.00168744 0.0018764 0.00206537 0.00225438 0.00244342 0.00263246 0.0028215 0.00301056 0.00319966
0.0033156 0.00343154 0.00354747 0.00366341 0.00377937 0.00385257 0.00392578 0.003999 0.00407221 0.00414544
0.00433467 0.00452391 0.00471315 0.0049024 0.0050917 0.00528104 0.00547043 0.00565986 0.00584932 0.00603877
0.00622823 0.00641774 0.00660729 0.00679687 0.00698645 0.00717603 0.00736566 0.00755534 0.00774505 0.00793476
0.00812448 0.00831424 0.00850407 0.00869392 0.00888377 0.00907363 0.00926354 0.00945351 0.00964352 0.00983353
0.0100235 0.0102136 0.0104037 0.0105939 0.0107841 0.0109743 0.0111645 0.0113548 0.0115452 0.0117355
0.0119259 0.0121163 0.0123068 0.0124973 0.0126879 0.0128784 0.013069 0.0132597 0.0134505 0.0136412
0.013832 0.0140228 0.0142138 0.0144047 0.0145957 0.0147867 0.0149778 0.0151689 0.0153601 0.0155514
0.0157426 0.0159339 0.0161254 0.0163168 0.0165083 0.0166998 0.0168914 0.0170831 0.0172749 0.0174667
0.0176585 0.0178504 0.0180424 0.0182345 0.0184266 0.0186187 0.0188109 0.0190033 0.0191958 0.0193882
0.0195807 0.0197732 0.019966 0.0201588 0.0203516 0.0205445 0.0207373 0.0209301 0.0211231 0.0213161
0.0215094 0.0217026 0.0218959 0.0220892 0.0222828 0.0224765 0.0226702 0.0228639 0.0230577 0.0232517
0.0234459 0.0236401 0.0238344 0.0240287 0.0242232 0.024418 0.0246128 0.0248075 0.0250024 0.0251976
0.025393 0.0255883 0.0257837 0.0259792 0.026175 0.0263711 0.0265671 0.0267632 0.0269594 0.0271559
0.0273527 0.0275495 0.0277463 0.0279433 0.0281406 0.0283382 0.0285359 0.0287335 0.0289313 0.0291295
0.029328 0.0295266 0.0297251 0.0299239 0.0301231 0.0303226 0.0305221 0.0307217 0.0309215 0.0311217
0.0313224 0.031523 0.0317237 0.0319246 0.032126 0.0323279 0.0325298 0.0327316 0.0329338 0.0331365
0.0333397 0.0335429 0.0337461 0.0339497 0.0341538 0.0343584 0.034563 0.0347677 0.0349727 0.0351783
0.0353844 0.0355906 0.0357968 0.0360034 0.0362105 0.0364183 0.0366266 0.0368356 0.037045 0.0372543
0.0374637 0.0376736 0.0378842 0.0380951 0.038306 0.0385169 0.0387284 0.0389403 0.0391527 0.039365
0.0395772 0.0397898 0.0400029 0.0402163 0.0404295 0.0406427 0.0408561 0.0410698 0.0412837 0.0414973
0.0417108 0.0419243 0.0421378 0.0423512 0.0425643 0.0427772 0.0429896 0.0432016 0.0434133 0.0436246
0.0438356 0.0440456 0.0442548 0.0444634 0.0446716 0.0448794 0.0450858 0.0452906 0.0454949 0.0456988
0.0459023 0.0461037 0.0463031 0.0465022 0.046701 0.0468994 0.0470951 0.0472889 0.0474825 0.0476759
0.047869 0.0480589 0.0482473 0.0484358 0.0486241 0.0488125 0.0489972 0.0491814 0.0493657 0.0495502
0.0497348 0.049916 0.0500974 0.050279 0.0504608 0.0506429 0.0508228 0.0510029 0.0511832 0.0513637
0.0515443 0.0517243 0.0519042 0.0520843 0.0522645 0.0524447 0.0526251 0.0528054 0.0529859 0.0531665
0.0533471 0.0535278 0.0537085 0.0538892 0.0540699 0.054251 0.0544321 0.0546131 0.0547942 0.0549753
0.0551567 0.0553381 0.0555196 0.055701 0.0558824 0.0560642 0.0562459 0.0564277 0.0566094 0.0567912
0.0569732 0.0571553 0.0573373 0.0575194 0.0577014 0.0578837 0.0580661 0.0582484 0.0584307 0.0586131
0.0587957 0.0589783 0.0591609 0.0593436 0.0595262 0.0597091 0.059892 0.060075 0.0602579 0.0604408
0.0606241 0.0608073 0.0609905 0.0611738 0.061357 0.0615405 0.0617241 0.0619076 0.0620912 0.0622747
0.0624585 0.0626424 0.0628262 0.06301 0.0631938 0.063378 0.0635621 0.0637462 0.0639303 0.0641144
0.0642987 0.0644831 0.0646675 0.0648518 0.0650362 0.0652205 0.0654047 0.065589 0.0657733 0.0659531
0.0659543 0.0659556 0.0659568 0.065958 0.0659592 0.066144 0.0663289 0.0665137 0.0666985 0.0668833
0.0670683 0.0672535 0.0674387 0.0676239 0.0678091 0.0679943 0.0681796 0.0683649 0.0685503 0.0687356
0.068921 0.0691064 0.0692919 0.0694774 0.0696629 0.0698483 0.0700339 0.0702195 0.0704051 0.0705907
0.0707763 0.070962 0.0711477 0.0713333 0.071519 0.0717047 0.0718905 0.0720763 0.072262 0.0724478
0.0726336 0.0728194 0.0730052 0.073191 0.0733769 0.0735627 0.0737486 0.0739344 0.0741203 0.0743062
0.074492 0.0746779 0.0748638 0.0750497 0.0752356 0.0754214 0.0756073 0.0757932 0.0759791 0.0761649
0.0763508 0.0765367 0.0767225 0.0769084 0.0770942 0.0772801 0.0774659 0.0776517 0.0778375 0.0780233
0.0782092 0.0783949 0.0785807 0.0787665 0.0789522 0.079138 0.0793237 0.0795095 0.0796952 0.0798809
0.0800667 0.0802524 0.0804381 0.0806238 0.0808095 0.0809953 0.081181 0.0813667 0.0815524 0.0817382
0.0819239 0.0821096 0.0822953 0.0824811 0.0826668 0.0828526 0.0830383 0.0832241 0.0834098 0.0835956
0.0837814 0.0839672 0.0841531 0.0843389 0.0845247 0.0847106 0.0848965 0.0850823 0.0852682 0.0854541
0.08564 0.085826 0.0860119 0.0861979 0.0863838 0.0865698 0.0867558 0.0869418 0.0871278 0.0873138
0.0874999 0.087686 0.087872 0.0880581 0.0882441 0.0884303 0.0886164 0.0888025 0.0889886 0.0891747
0.0893609 0.0895471 0.0897332 0.0899194 0.0901055 0.0902918 0.090478 0.0906642 0.0908504 0.0910366
0.0912229 0.0914091 0.0915954 0.0917816 0.0919678 0.0921541 0.0923404 0.0925267 0.092713 0.0928993
0.0930856 0.093272 0.0934583 0.0936446 0.0938309 0.0940173 0.0942037 0.09439 0.0945764 0.0947628
0.0949492 0.0951356 0.095322 0.0955084 0.0956948 0.0958812 0.0960677 0.0962541 0.0964406 0.096627
0.0968135 0.0970001 0.0971866 0.0973732 0.0975597 0.0977463 0.0979329 0.0981195 0.0983061 0.0984927
0.0986794 0.098866 0.0990527 0.0992394 0.0994261 0.0996127 0.0997994 0.099986 0.100173 0.100359
0.100546 0.100733 0.100919 0.101106 0.101292 0.101479 0.101666 0.101852 0.102039 0.102226
0.102412 0.102599 0.102786 0.102972 0.103159 0.103346 0.103533 0.10372 0.103906 0.104093
0.10428 0.104467 0.104655 0.104842 0.105029 0.105216 0.105404 0.105591 0.105779 0.105966
0.106154 0.106342 0.10653 0.106718 0.106906 0.107094 0.107282 0.107471 0.10766 0.107848
0.108036 0.108226 0.108415 0.108604 0.108793 0.108982 0.109171 0.109361 0.10955 0.10974
0.109929 0.110119 0.110309 0.110499 0.110689 0.110879 0.111069 0.11126 0.11145 0.11164
0.11183 0.112021 0.112211 0.112401 0.112592 0.112782 0.112973 0.113163 0.113354 0.113545
0.113735 0.113926 0.114117 0.114307 0.114498 0.114689 0.11488 0.115071 0.115261 0.115452
0.115643 0.115834 0.116025 0.116216 0.116407 0.116598 0.116789 0.11698 0.11717 0.117361
0.117552 0.117743 0.117934 0.118125 0.118316 0.118507 0.118698 0.118889 0.11908 0.119271
0.119462 0.119653 0.119844 0.120035 0.120226 0.120417 0.120608 0.120799 0.12099 0.121181
0.121372 0.121563 0.121754 0.121945 0.122136 0.122327 0.122518 0.122709 0.1229 0.123091
0.123282 0.123473 0.123664 0.123855 0.124046 0.124237 0.124428 0.124619 0.12481 0.125001
0.125192 0.125383 0.125575 0.125766 0.125957 0.126148 0.126339 0.12653 0.126721 0.126912
0.127103 0.127295 0.127486 0.127677 0.127868 0.128059 0.128251 0.128442 0.128633 0.128824
0.129016 0.129207 0.129398 0.129589 0.12978 0.129971 0.130163 0.130354 0.130545 0.130736
0.130927 0.131118 0.131309 0.131501 0.131692 0.131882 0.132074 0.132265 0.132456 0.132647
0.132837 0.133028 0.133219 0.13341 0.133601 0.133792 0.133983 0.134174 0.134364 0.134555
0.134746 0.134936 0.135127 0.135318 0.135508 0.135699 0.135889 0.13608 0.136271 0.136461
0.136651 0.136842 0.137032 0.137222 0.137413 0.137603 0.137793 0.137983 0.138174 0.138364
0.138554 0.138744 0.138934 0.139124 0.139314 0.139504 0.139694 0.139884 0.140073 0.140263
0.140453 0.140643 0.140832 0.141022 0.141212 0.141401 0.141591 0.141781 0.14197 0.14216
0.142349 0.142539 0.142728 0.142918 0.143107 0.143296 0.143486 0.143675 0.143864 0.144054
0.144243 0.144432 0.144621 0.144811 0.145 0.145189 0.145378 0.145567 0.145756 0.145945
0.146134 0.146323 0.146512 0.146701 0.146891 0.147079 0.147268 0.147457 0.147646 0.147835
0.148024 0.148213 0.148401 0.14859 0.148779 0.148968 0.149157 0.149345 0.149534 0.149723
0.149911 0.1501 0.150289 0.150478 0.150667 0.150855 0.151044 0.151232 0.151421 0.15161
0.151986 0.152362 0.152739 0.153115 0.153492 0.154242 0.154994 0.155745 0.156496 0.157246
0.158747 0.160248 0.161749 0.163249 0.16475 0.16625 0.16775 0.169251 0.170751 0.172251
0.175252 0.178252 0.181252 0.184253 0.187253 0.193253 0.199253 0.205253 0.211253 0.217254
0.223254 0.229254 0.235254 0.241254 0.247254 0.253254 0.259254 0.265254 0.271254 0.277254
0.283254 0.289254 0.295254 0.301254 0.307254 0.313255 0.319255 0.325255 0.331255 0.337255
0.343255 0.349255 0.355255 0.361255 0.367255 0.373255 0.379255 0.385255 0.391255 0.397255
0.403255 0.403355 0 7.36824e-05 0.000147369 0.000221059 0.000294753 0.000368451 0.000559062 0.000749706
0.000940385 0.0011311 0.00132184 0.00139694 0.00147204 0.00154715 0.00162227 0.00169707 0.00181286 0.00192866
0.00204447 0.0021603 0.00227614 0.00246709 0.00265809 0.00284912 0.00304019 0.00323129 0.00342244 0.00361362
0.00380485 0.00399611 0.00418742 0.00437877 0.00457016 0.00476159 0.00495307 0.00514459 0.00533615 0.00552776
0.00571942 0.00591112 0.00610287 0.00629466 0.00648651 0.0066784 0.00687035 0.00706234 0.00725439 0.00744649
0.00763864 0.00783085 0.0080231 0.00821542 0.00840779 0.00860022 0.0087927 0.00898525 0.00917785 0.00937051
0.00956324 0.00975602 0.00994887 0.0101418 0.0103348 0.0105278 0.0107209 0.0109141 0.0111073 0.0113007
0.0114941 0.0116875 0.0118811 0.0120747 0.0122684 0.0124621 0.012656 0.0128499 0.0130439 0.013238
0.0134321 0.0136264 0.0138207 0.0140152 0.0142097 0.0144043 0.014599 0.0147938 0.0149886 0.0151836
0.0153787 0.0155739 0.0157692 0.0159646 0.01616 0.0163556 0.0165513 0.0167472 0.0169431 0.0171391
0.0173353 0.0175316 0.017728 0.0179245 0.0181211 0.0183179 0.0185148 0.0187118 0.018909 0.0191063
0.0193037 0.0195013 0.019699 0.0198969 0.0200949 0.0202931 0.0204914 0.0206899 0.0208885 0.0210873
0.0212863 0.0214854 0.0216848 0.0218842 0.0220839 0.0222838 0.0224838 0.022684 0.0228845 0.0230851
0.0232859 0.0234869 0.0236882 0.0238896 0.0240913 0.0242932 0.0244953 0.0246976 0.0249002 0.025103
0.0253061 0.0255094 0.025713 0.0259168 0.0261209 0.0263253 0.02653 0.0267349 0.0269402 0.0271457
0.0273515 0.0275577 0.0277641 0.0279709 0.028178 0.0283855 0.0285933 0.0288014 0.0290099 0.0292188
0.029428 0.0296377 0.0298477 0.0300581 0.030269 0.0304802 0.0306919 0.0309041 0.0311167 0.0313297
0.0315433 0.0317573 0.0319718 0.0321868 0.0324023 0.0326184 0.032835 0.0330522 0.0332699 0.0334882
0.0337071 0.0339266 0.0341468 0.0343676 0.034589 0.0348112 0.035034 0.0352576 0.0354818 0.0357068
0.0359325 0.0361591 0.0363864 0.0366145 0.0368435 0.0370734 0.0373042 0.0375358 0.0377683 0.0380018
0.0382362 0.0384717 0.0387081 0.0389455 0.0391841 0.0394237 0.0396644 0.0399063 0.0401492 0.0403933
0.0406385 0.040885 0.0411327 0.0413817 0.0416319 0.0418834 0.0421363 0.0423905 0.0426459 0.0429025
0.0431602 0.0434192 0.04368 0.0439419 0.044205 0.0444692 0.0447345 0.0450017 0.0452695 0.0455377
0.0458065 0.0460758 0.0463476 0.046474 0.0466003 0.0467266 0.0468527 0.0469323 0.0470869 0.0472413
0.0473955 0.0475495 0.0477046 0.0479753 0.0482442 0.0485114 0.0487765 0.0490449 0.0491905 0.0493349
0.0494782 0.0496204 0.0497302 0.049851 0.049971 0.0500902 0.0502087 0.0503273 0.0505746 0.0508168
0.051054 0.0512865 0.0515156 0.0515308 0.051546 0.0515611 0.0515762 0.0515914 0.0517982 0.0520004
0.0521982 0.0523918 0.0525793 0.0526904 0.0527998 0.0529076 0.053014 0.0531475 0.0532221 0.053296
0.0533693 0.0534419 0.0535134 0.0536876 0.0538583 0.0540255 0.0541895 0.0543471 0.0544852 0.0546219
0.054757 0.0548906 0.0551129 0.0551272 0.0551415 0.0551558 0.05517 0.0551862 0.055318 0.0554493
0.0555801 0.0557102 0.0558391 0.055982 0.056125 0.0562682 0.0564114 0.0565546 0.0566978 0.0568414
0.0569853 0.0571296 0.0572742 0.0574192 0.0575645 0.0577102 0.0578563 0.0580028 0.0581495 0.0582966
0.058444 0.0585917 0.0587398 0.0588881 0.0590368 0.0591858 0.0593351 0.0594847 0.0596347 0.0597849
0.0599354 0.0600862 0.0602374 0.0603888 0.0605405 0.0606926 0.060845 0.0609977 0.0611506 0.061304
0.0614576 0.0616116 0.0617659 0.0619205 0.0620755 0.0622309 0.0623865 0.0625426 0.0626989 0.0628556
0.0630127 0.0631701 0.0633279 0.063486 0.0636445 0.0638033 0.0639624 0.0641219 0.0642818 0.064442
0.0646025 0.0647633 0.0649245 0.0650861 0.0652479 0.0654101 0.0655726 0.0657354 0.0658986 0.066062
0.0662257 0.0663898 0.0665541 0.0667188 0.0668837 0.0670489 0.0672144 0.0673802 0.0675462 0.0677125
0.0678791 0.0680459 0.068213 0.0683424 0.0684719 0.0686015 0.0687314 0.0688761 0.0689113 0.0689466
0.0689818 0.069017 0.0690523 0.0692208 0.0693895 0.0695584 0.0697276 0.0698969 0.0700665 0.0702363
0.0704062 0.0705764 0.0707467 0.0709173 0.0710879 0.0712588 0.0714298 0.071601 0.0717723 0.0719438
0.0721154 0.0722872 0.0724592 0.0726312 0.0728034 0.0729757 0.0731481 0.0733206 0.0734933 0.0736661
0.0738389 0.0740119 0.0741849 0.0742541 0.0743234 0.0743926 0.0744619 0.0745345 0.0746378 0.0747411
0.0748445 0.0749479 0.0750512 0.0752247 0.0753982 0.0755718 0.0757454 0.075919 0.0760926 0.0762663
0.0764399 0.0766135 0.0767872 0.0769609 0.0771345 0.0773082 0.0774818 0.0776554 0.077829 0.0780025
0.078176 0.0783494 0.0785228 0.0786962 0.0788695 0.0790427 0.079216 0.0792544 0.0792814 0.0793083
0.0793352 0.0793622 0.0793891 0.0795622 0.0797353 0.0799083 0.0800812 0.0802541 0.080427 0.0805999
0.0807727 0.0809456 0.0811184 0.0812912 0.081464 0.0816368 0.0818096 0.0819825 0.0821554 0.0823283
0.0825014 0.0826744 0.0828476 0.0830207 0.083194 0.0833673 0.0835407 0.0837142 0.0838879 0.0840616
0.0842354 0.0844093 0.0845834 0.0847575 0.0849317 0.085106 0.0852805 0.085455 0.0856297 0.0858044
0.0859793 0.0861544 0.0863295 0.0865047 0.08668 0.0868554 0.0870309 0.0872065 0.0873822 0.0875581
0.087734 0.0879101 0.0880862 0.0882624 0.0884388 0.0886152 0.0887917 0.0889682 0.089145 0.0893218
0.0894987 0.0896757 0.0898527 0.0900299 0.0902071 0.0903844 0.0905618 0.0907393 0.0909169 0.0910946
0.0912724 0.0914502 0.0916282 0.0918062 0.0919843 0.0921624 0.0923407 0.092519 0.0926974 0.092876
0.0930546 0.0932333 0.093412 0.0935909 0.0937698 0.0939488 0.0941279 0.0943071 0.0944863 0.0946657
0.0948452 0.0950248 0.0952044 0.0953842 0.095564 0.095744 0.095924 0.0961042 0.0962844 0.0964648
0.0966454 0.096826 0.0970068 0.0971878 0.0973688 0.09755 0.0977314 0.097913 0.0980952 0.0982776
0.0984601 0.0986427 0.0988255 0.0990075 0.0991895 0.0993715 0.0995534 0.0997353 0.0999175 0.1001
0.100282 0.100464 0.100645 0.100827 0.101009 0.101191 0.101373 0.101555 0.101737 0.101919
0.102101 0.102284 0.102467 0.10265 0.102833 0.103017 0.103201 0.103385 0.10357 0.103756
0.103943 0.10413 0.104318 0.104507 0.104696 0.104887 0.105078 0.105271 0.105464 0.105659
0.105856 0.106053 0.106252 0.106452 0.106653 0.106856 0.10706 0.107265 0.107473 0.107682
0.107893 0.108105 0.108319 0.108535 0.108752 0.108971 0.109192 0.109415 0.109639 0.109865
0.110093 0.110322 0.110554 0.110787 0.111021 0.111258 0.111496 0.111735 0.111976 0.112219
0.112463 0.112709 0.112956 0.113205 0.113455 0.113707 0.11396 0.114214 0.11447 0.114726
0.114984 0.115243 0.115503 0.115765 0.116027 0.116291 0.116556 0.116821 0.117088 0.117355
0.117623 0.117893 0.118163 0.118434 0.118706 0.118978 0.119252 0.119526 0.119801 0.120077
0.120353 0.12063 0.120907 0.121185 0.121464 0.121744 0.122024 0.122304 0.122585 0.122867
0.123149 0.123431 0.123714 0.123997 0.124281 0.124565 0.12485 0.125135 0.12542 0.125706
0.125991 0.126277 0.126563 0.12685 0.127137 0.127424 0.127711 0.127999 0.128286 0.128574
0.128862 0.129149 0.129438 0.129726 0.130014 0.130302 0.130591 0.130879 0.130917 0.130955
0.130992 0.13103 0.131067 0.131318 0.131568 0.131819 0.132069 0.13232 0.132607 0.132894
0.133181 0.133467 0.133752 0.134038 0.134323 0.134608 0.134893 0.135177 0.13546 0.135743
0.136025 0.136306 0.136588 0.136868 0.137149 0.13743 0.13771 0.13799 0.138268 0.138546
0.138823 0.139099 0.139376 0.139652 0.139928 0.140204 0.14048 0.140756 0.14103 0.141304
0.141577 0.141851 0.142125 0.142397 0.142671 0.142943 0.143216 0.143489 0.143761 0.144032
0.144304 0.144576 0.144847 0.144862 0.144877 0.144892 0.144907 0.144922 0.145178 0.145433
0.145688 0.145943 0.146197 0.146466 0.146734 0.147003 0.147271 0.147538 0.147804 0.148071
0.148337 0.148603 0.148868 0.149132 0.149397 0.149661 0.149926 0.150189 0.150451 0.150715
0.150977 0.151239 0.151501 0.151762 0.152023 0.152285 0.152546 0.152807 0.153066 0.153326
0.153586 0.153845 0.154104 0.154362 0.154621 0.154879 0.155138 0.155396 0.155652 0.15591
0.156166 0.156423 0.15668 0.156934 0.15719 0.157446 0.157701 0.157956 0.158209 0.158463
0.158717 0.15897 0.159223 0.159474 0.159727 0.159979 0.16023 0.160481 0.160731 0.160981
0.16123 0.16148 0.161728 0.161975 0.162223 0.16247 0.162717 0.162964 0.163209 0.163454
0.163699 0.163943 0.164187 0.16443 0.164673 0.164916 0.165158 0.165399 0.16564 0.165881
0.166121 0.166361 0.1666 0.166635 0.166669 0.166703 0.166737 0.166769 0.166974 0.167179
0.167382 0.167586 0.167789 0.168251 0.168715 0.169166 0.169604 0.170029 0.170834 0.171639
0.172441 0.17324 0.174034 0.175567 0.177096 0.178624 0.180151 0.181679 0.18319 0.184709
0.186227 0.187744 0.18926 0.192273 0.195289 0.198304 0.201317 0.204329 0.210336 0.216344
0.222352 0.22836 0.234367 0.240368 0.246373 0.252378 0.258382 0.264387 0.270387 0.276391
0.282395 0.288399 0.294402 0.300403 0.306406 0.312409 0.318412 0.324415 0.330416 0.336419
0.342421 0.348424 0.354426 0.360427 0.366429 0.372431 0.378434 0.384436 0.390436 0.396438
0.40244 0.408442 0.414444 0.420444 0.425776 0 7.36584e-05 0.000147321 0.000220989 0.000294662
0.000368339 0.000558895 0.000749484 0.000940105 0.00113076 0.00132145 0.001406 0.00149056 0.00157512 0.0016597
0.00174402 0.00185028 0.00195655 0.00206283 0.00216913 0.00227543 0.00246633 0.00265726 0.00284822 0.00303923
0.00323026 0.00342134 0.00361246 0.00380361 0.00399481 0.00418604 0.00437731 0.00456863 0.00475999 0.00495139
0.00514283 0.00533432 0.00552585 0.00571742 0.00590904 0.00610071 0.00629242 0.00648418 0.00667598 0.00686784
0.00705975 0.0072517 0.0074437 0.00763576 0.00782787 0.00802003 0.00821225 0.00840452 0.00859684 0.00878922
0.00898166 0.00917416 0.00936671 0.00955932 0.009752 0.00994473 0.0101375 0.0103304 0.0105233 0.0107163
0.0109094 0.0111025 0.0112957 0.0114889 0.0116823 0.0118757 0.0120691 0.0122627 0.0124563 0.01265
0.0128438 0.0130376 0.0132316 0.0134256 0.0136197 0.0138138 0.0140081 0.0142025 0.0143969 0.0145914
0.014786 0.0149807 0.0151755 0.0153704 0.0155654 0.0157605 0.0159557 0.016151 0.0163464 0.0165419
0.0167375 0.0169332 0.0171291 0.017325 0.0175211 0.0177172 0.0179135 0.0181099 0.0183065 0.0185031
0.0186999 0.0188968 0.0190939 0.019291 0.0194883 0.0196858 0.0198834 0.0200811 0.020279 0.0204771
0.0206753 0.0208736 0.0210721 0.0212708 0.0214696 0.0216686 0.0218678 0.0220671 0.0222666 0.0224664
0.0226662 0.0228663 0.0230666 0.0232671 0.0234677 0.0236686 0.0238697 0.024071 0.0242725 0.0244742
0.0246762 0.0248783 0.0250808 0.0252834 0.0254864 0.0256895 0.0258929 0.0260966 0.0263006 0.0265048
0.0267093 0.0269141 0.0271192 0.0273246 0.0275303 0.0277364 0.0279427 0.0281493 0.0283564 0.0285637
0.0287714 0.0289795 0.0291879 0.0293968 0.029606 0.0298156 0.0298589 0.0299022 0.0299456 0.0299889
0.0300312 0.0301985 0.0303661 0.0305339 0.030702 0.0308704 0.0310827 0.0312954 0.0315086 0.0317224
0.0319366 0.0321514 0.0323667 0.0325826 0.0327991 0.0330162 0.0332339 0.0334522 0.0336712 0.0338909
0.0341112 0.0343323 0.0345541 0.0347767 0.0350001 0.0352242 0.0354492 0.0356751 0.0359019 0.0361296
0.0363582 0.0365878 0.0368186 0.0370504 0.0372833 0.0375173 0.0377525 0.0379889 0.0382266 0.0384657
0.0387061 0.0389479 0.0391914 0.0394364 0.0396832 0.0399315 0.0401815 0.0404334 0.0406873 0.0409433
0.0412012 0.0414613 0.0417238 0.0419889 0.0422566 0.0425269 0.0428005 0.0430771 0.0433568 0.0436399
0.0439266 0.0442162 0.0445099 0.0448078 0.0451099 0.0454176 0.0457273 0.0460417 0.0463607 0.0466842
0.047018 0.0471744 0.047332 0.0474908 0.0476505 0.0477278 0.0479342 0.0481419 0.0483509 0.0485611
0.0487798 0.0490799 0.0493821 0.0496859 0.0499888 0.0500794 0.050199 0.0503183 0.0504372 0.0505558
0.050679 0.0508756 0.0510701 0.0512625 0.0514525 0.0515762 0.0517805 0.0519814 0.0521786 0.0523724