# vtk DataFile Version 2.0
tracks
ASCII
DATASET POLYDATA
POINTS 19505 float
-1.001 1e-07 0.0011 -0.99955 1.00891e-07 0.00110002 -0.9981 1.01784e-07 0.00110005 -0.99665 1.02677e-07
0.00110007 -0.9952 1.03572e-07 0.0011001 -0.99375 1.04469e-07 0.00110014 -0.99 1.0677e-07 0.00110024
-0.98625 1.09091e-07 0.00110034 -0.9825 1.11413e-07 0.00110044 -0.97875 1.13749e-07 0.00110055 -0.975
1.16109e-07 0.00110068 -0.97125 1.18471e-07 0.00110083 -0.9675 1.20857e-07 0.00110098 -0.96375 1.23244e-07
0.00110113 -0.96 1.25658e-07 0.00110129 -0.95625 1.28127e-07 0.00110145 -0.9525 1.30638e-07 0.00110162
-0.94875 1.33161e-07 0.00110179 -0.945 1.35686e-07 0.00110197 -0.94125 1.38206e-07 0.00110214 -0.9375
1.40715e-07 0.00110231 -0.93375 1.43187e-07 0.00110249 -0.93 1.45688e-07 0.00110267 -0.92625 1.48189e-07
0.00110285 -0.9225 1.50688e-07 0.00110303 -0.91875 1.53181e-07 0.00110321 -0.915 1.55637e-07 0.0011034
-0.91125 1.58125e-07 0.00110359 -0.9075 1.60614e-07 0.00110377 -0.90375 1.63153e-07 0.00110396 -0.9
1.65786e-07 0.00110415 -0.89625 1.6848e-07 0.00110435 -0.8925 1.7133e-07 0.00110454 -0.88875 1.743e-07
0.00110475 -0.885 1.77334e-07 0.00110495 -0.88125 1.80369e-07 0.00110516 -0.8775 1.83391e-07 0.00110536
-0.87375 1.86461e-07 0.00110557 -0.87 1.89564e-07 0.00110579 -0.86625 1.92685e-07 0.001106 -0.8625
1.95808e-07 0.00110622 -0.85875 1.98917e-07 0.00110644 -0.855 2.02019e-07 0.00110666 -0.85125 2.05099e-07
0.00110689 -0.8475 2.08167e-07 0.00110712 -0.84375 2.11236e-07 0.00110735 -0.84 2.14259e-07 0.00110758
-0.83625 2.17313e-07 0.00110782 -0.8325 2.20348e-07 0.00110806 -0.82875 2.23374e-07 0.00110831 -0.825
2.26402e-07 0.00110855 -0.82125 2.29415e-07 0.0011088 -0.8175 2.32502e-07 0.00110905 -0.81375 2.35645e-07
0.00110931 -0.81 2.38818e-07 0.00110957 -0.80625 2.41992e-07 0.00110983 -0.8025 2.45152e-07 0.0011101
-0.79875 2.48463e-07 0.00111037 -0.795 2.51906e-07 0.00111064 -0.79125 2.5542e-07 0.00111092 -0.7875
2.58936e-07 0.0011112 -0.78375 2.62387e-07 0.00111148 -0.78 2.66016e-07 0.00111177 -0.77625 2.69755e-07
0.00111207 -0.7725 2.73552e-07 0.00111237 -0.76875 2.77352e-07 0.00111266 -0.765 2.81079e-07 0.00111296
-0.76125 2.84924e-07 0.00111327 -0.7575 2.88808e-07 0.00111359 -0.75375 2.92715e-07 0.00111391 -0.75
2.96623e-07 0.00111423 -0.74625 3.00516e-07 0.00111455 -0.7425 3.04424e-07 0.00111488 -0.73875 3.08324e-07
0.00111522 -0.735 3.1222e-07 0.00111557 -0.73125 3.16118e-07 0.00111591 -0.7275 3.20001e-07 0.00111625
-0.72375 3.23899e-07 0.00111661 -0.72 3.2779e-07 0.00111697 -0.71625 3.31676e-07 0.00111734 -0.7125
3.35566e-07 0.00111771 -0.70875 3.3944e-07 0.00111808 -0.705 3.43359e-07 0.00111846 -0.70125 3.473e-07
0.00111885 -0.6975 3.51254e-07 0.00111924 -0.69375 3.55211e-07 0.00111964 -0.69 3.59049e-07 0.00112003
-0.68625 3.63076e-07 0.00112044 -0.6825 3.67164e-07 0.00112086 -0.67875 3.71286e-07 0.00112128 -0.675
3.75411e-07 0.00112171 -0.67125 3.79404e-07 0.00112213 -0.6675 3.83626e-07 0.00112257 -0.66375 3.87933e-07
0.00112302 -0.66 3.9229e-07 0.00112347 -0.65625 3.9665e-07 0.00112393 -0.6525 4.00996e-07 0.00112438
-0.64875 4.05454e-07 0.00112485 -0.645 4.09996e-07 0.00112533 -0.64125 4.14587e-07 0.00112582 -0.6375
4.19182e-07 0.00112631 -0.63375 4.23606e-07 0.0011268 -0.63 4.28305e-07 0.0011273 -0.62625 4.33092e-07
0.00112781 -0.6225 4.37931e-07 0.00112834 -0.61875 4.42775e-07 0.00112886 -0.615 4.47424e-07 0.00112939
-0.61125 4.52374e-07 0.00112992 -0.6075 4.57412e-07 0.00113048 -0.60375 4.62503e-07 0.00113104 -0.6
4.67598e-07 0.0011316 -0.59625 4.72472e-07 0.00113216 -0.5925 4.77596e-07 0.00113272 -0.58875 4.82725e-07
0.00113329 -0.585 4.87914e-07 0.00113386 -0.58125 4.93198e-07 0.00113445 -0.5775 4.98566e-07 0.00113505
-0.57375 5.03976e-07 0.00113565 -0.57 5.09392e-07 0.00113625 -0.56625 5.14879e-07 0.00113687 -0.5625
5.20482e-07 0.00113749 -0.55875 5.26191e-07 0.00113814 -0.555 5.31945e-07 0.00113878 -0.55125 5.37706e-07
0.00113943 -0.5475 5.43551e-07 0.00114008 -0.54375 5.49535e-07 0.00114076 -0.54 5.55312e-07 0.00114144
-0.53625 5.61473e-07 0.00114213 -0.5325 5.67641e-07 0.00114282 -0.52875 5.73904e-07 0.00114352 -0.525
5.80319e-07 0.00114424 -0.52125 5.8688e-07 0.00114497 -0.5175 5.93494e-07 0.00114571 -0.51375 6.00117e-07
0.00114644 -0.51 6.06837e-07 0.00114719 -0.50625 6.13708e-07 0.00114795 -0.5025 6.20731e-07 0.00114873
-0.49875 6.27812e-07 0.00114951 -0.495 6.34903e-07 0.00115029 -0.49125 6.42099e-07 0.00115108 -0.4875
6.49456e-07 0.00115189 -0.48375 6.56437e-07 0.00115272 -0.48 6.64023e-07 0.00115355 -0.47625 6.71622e-07
0.00115437 -0.4725 6.79338e-07 0.00115521 -0.46875 6.87233e-07 0.00115607 -0.465 6.94677e-07 0.00115694
-0.46125 7.02831e-07 0.00115781 -0.4575 7.10999e-07 0.00115868 -0.45375 7.19332e-07 0.00115956 -0.45
7.27913e-07 0.00116045 -0.44625 7.36003e-07 0.00116136 -0.4425 7.4493e-07 0.00116227 -0.43875 7.53874e-07
0.00116319 -0.435 7.62991e-07 0.0011641 -0.43125 7.72366e-07 0.00116503 -0.4275 7.82031e-07 0.00116597
-0.42375 7.91782e-07 0.00116692 -0.42 8.01553e-07 0.00116786 -0.41625 8.11462e-07 0.00116881 -0.4125
8.21568e-07 0.00116976 -0.40875 8.31919e-07 0.00117071 -0.405 8.42366e-07 0.00117167 -0.40125 8.52836e-07
0.00117263 -0.3975 8.63453e-07 0.00117359 -0.39375 8.74278e-07 0.00117454 -0.39 8.84071e-07 0.00117549
-0.38625 8.95273e-07 0.00117644 -0.3825 9.06502e-07 0.00117739 -0.37875 9.17934e-07 0.00117833 -0.375
9.2965e-07 0.00117926 -0.37125 9.40169e-07 0.00118016 -0.3675 9.52377e-07 0.00118107 -0.36375 9.64615e-07
0.00118198 -0.36 9.77112e-07 0.00118287 -0.35625 9.89971e-07 0.00118371 -0.3525 1.00331e-06 0.00118453
-0.34875 1.01678e-06 0.00118534 -0.345 1.03029e-06 0.00118615 -0.34125 1.04409e-06 0.00118693 -0.3375
1.05829e-06 0.00118763 -0.33375 1.07073e-06 0.00118828 -0.33 1.08562e-06 0.00118893 -0.32625 1.10056e-06
0.00118957 -0.3225 1.11581e-06 0.00119015 -0.31875 1.1315e-06 0.00119063 -0.315 1.14502e-06 0.001191
-0.31125 1.1615e-06 0.00119138 -0.3075 1.17803e-06 0.00119175 -0.30375 1.19492e-06 0.00119201 -0.3
1.21229e-06 0.00119212 -0.29625 1.22697e-06 0.00119208 -0.2925 1.24572e-06 0.00119181 -0.28875 1.26499e-06
0.00119131 -0.285 1.28463e-06 0.00119065 -0.28125 1.30433e-06 0.00118998 -0.2775 1.32439e-06 0.00118932
-0.27375 1.34519e-06 0.00118833 -0.27 1.36655e-06 0.00118702 -0.26625 1.38834e-06 0.00118547 -0.2625
1.41017e-06 0.00118392 -0.25875 1.43245e-06 0.00118237 -0.255 1.45552e-06 0.00118036 -0.25125 1.47918e-06
0.00117788 -0.2475 1.50326e-06 0.00117507 -0.24375 1.52738e-06 0.00117227 -0.24 1.54576e-06 0.00116947
-0.23625 1.57124e-06 0.00116606 -0.2325 1.59735e-06 0.00116203 -0.22875 1.62388e-06 0.00115759 -0.225
1.65044e-06 0.00115318 -0.22125 1.67764e-06 0.00114878 -0.2175 1.70551e-06 0.00114355 -0.21375 1.73389e-06
0.00113747 -0.21 1.76257e-06 0.00113091 -0.20625 1.79124e-06 0.00112439 -0.2025 1.82071e-06 0.00111791
-0.19875 1.85075e-06 0.00111026 -0.195 1.88101e-06 0.00110143 -0.19125 1.91137e-06 0.00109203 -0.1875
1.94168e-06 0.00108273 -0.18375 1.96155e-06 0.00107351 -0.18 1.99277e-06 0.00106279 -0.17625 2.02412e-06
0.00105058 -0.1725 2.05544e-06 0.00103786 -0.16875 2.08666e-06 0.00102531 -0.165 2.10578e-06 0.00101293
-0.16125 2.13761e-06 0.000998786 -0.1575 2.16916e-06 0.000982905 -0.15375 2.20051e-06 0.000966779 -0.15
2.2317e-06 0.000950947 -0.14625 2.24899e-06 0.0009354 -0.1425 2.28127e-06 0.000917844 -0.13875 2.31378e-06
0.000898339 -0.135 2.3461e-06 0.000879079 -0.13125 2.37821e-06 0.000860269 -0.1275 2.41119e-06 0.000841894
-0.12375 2.44265e-06 0.000821421 -0.12 2.47287e-06 0.000799248 -0.11625 2.50287e-06 0.000777712 -0.1125
2.53266e-06 0.000756792 -0.10875 2.56326e-06 0.000736465 -0.105 2.59349e-06 0.000714063 -0.10125 2.62358e-06
0.000690652 -0.0975 2.65344e-06 0.000668034 -0.0937499 2.68308e-06 0.000646182 -0.0899999 2.69427e-06 0.000625061
-0.0862499 2.7191e-06 0.000602341 -0.0824999 2.742e-06 0.000579524 -0.0787499 2.76487e-06 0.000557577 -0.0749999
2.78773e-06 0.000536466 -0.0712499 2.79174e-06 0.000516152 -0.0674999 2.80248e-06 0.000495689 -0.0637499 2.81163e-06
0.000475869 -0.0599999 2.82121e-06 0.000456829 -0.0562499 2.83122e-06 0.00043854 -0.0524999 2.84186e-06 0.000420965
-0.0487498 2.84072e-06 0.000405741 -0.0449998 2.84025e-06 0.000391051 -0.0412498 2.84043e-06 0.000376877 -0.0374998
2.84126e-06 0.000363201 -0.0337498 2.82495e-06 0.000350004 -0.0299998 2.81316e-06 0.000341216 -0.0262498 2.802e-06
0.000332641 -0.0224998 2.79147e-06 0.000324273 -0.0187499 2.78154e-06 0.000316108 -0.0149999 2.7558e-06 0.000308141
-0.0112499 2.72206e-06 0.000304532 -0.0074999 2.68869e-06 0.000300964 -0.00374991 2.65569e-06 0.000297437 6.11907e-08
2.62306e-06 0.000293949 0.00375005 2.59012e-06 0.000290502 0.00750005 2.55612e-06 0.000287097 0.01125 2.52248e-06
0.000283732 0.015 2.48921e-06 0.000280404 0.01875 2.4563e-06 0.000277114 0.0225 2.39813e-06 0.000275961
0.02625 2.33882e-06 0.000274814 0.03 2.27955e-06 0.000273672 0.03375 2.22032e-06 0.000272535 0.0375
2.16112e-06 0.000271402 0.04125 2.07831e-06 0.000270842 0.045 1.99421e-06 0.000270283 0.04875 1.90999e-06
0.000269726 0.0525 1.82566e-06 0.00026917 0.05625 1.74122e-06 0.000268615 0.06 1.62122e-06 0.000268358
0.06375 1.50627e-06 0.000268101 0.0675 1.39109e-06 0.000267845 0.07125 1.27566e-06 0.000267589 0.075
1.15999e-06 0.000267333 0.07875 1.0086e-06 0.000267221 0.0825 8.56311e-07 0.000267109 0.08625 7.03677e-07
0.000266997 0.09 5.50694e-07 0.000266885 0.09375 3.97361e-07 0.000266773 0.095282 3.17889e-07 0.000266748
0.0968141 2.38274e-07 0.000266722 0.0983461 1.58585e-07 0.000266697 0.0998782 7.88209e-08 0.000266671 0.101391
-1.61513e-13 0.000266646 0.103613 -1.15896e-07 0.000266609 0.105834 -2.31975e-07 0.000266573 0.108056 -3.48235e-07
0.000266536 0.110278 -4.64679e-07 0.000266499 0.1125 -5.8198e-07 0.000266462 0.11625 -8.23702e-07 0.000266412
0.12 -1.06612e-06 0.000266363 0.12375 -1.30921e-06 0.000266313 0.1275 -1.55298e-06 0.000266264 0.13125
-1.79741e-06 0.000266214 0.135 -2.08903e-06 0.00026616 0.13875 -2.38167e-06 0.000266105 0.1425 -2.67515e-06
[...]
POINT_DATA 19505
FIELD attributes 3
age 1 19505 float
0 7.30405e-05 0.000146085 0.000219133 0.000292185 0.00036524 0.000554186 0.000743133 0.00093208 0.00112104 0.00131004
0.00149907 0.0016881 0.00187713 0.00206618 0.00225526 0.00244438 0.0026335 0.00282262 0.00301175 0.00320093
0.00339014 0.00357936 0.00376857 0.00395781 0.00414708 0.0043364 0.00452571 0.00471503 0.00490437 0.00509375
0.00528317 0.00547265 0.00566216 0.00585171 0.00604125 0.00623079 0.00642038 0.00661002 0.00679969 0.00698936
0.00717903 0.00736875 0.00755852 0.00774832 0.00793813 0.00812793 0.00831779 0.0085077 0.00869765 0.0088876
0.00907755 0.00926756 0.00945763 0.00964773 0.00983783 0.0100279 0.0102181 0.0104083 0.0105986 0.0107889
0.0109792 0.0111695 0.0113599 0.0115504 0.0117408 0.0119313 0.0121218 0.0123124 0.0125031 0.0126937
0.0128844 0.0130751 0.0132659 0.0134568 0.0136476 0.0138385 0.0140294 0.0142205 0.0144116 0.0146027
0.0147937 0.0149849 0.0151762 0.0153676 0.0155589 0.0157502 0.0159417 0.0161332 0.0163248 0.0165165
0.0167081 0.0168998 0.0170916 0.0172835 0.0174754 0.0176673 0.0178594 0.0180515 0.0182437 0.018436
0.0186282 0.0188206 0.0190131 0.0192056 0.0193982 0.0195908 0.0197835 0.0199764 0.0201693 0.0203623
0.0205552 0.0207482 0.0209412 0.0211342 0.0213275 0.0215208 0.0217142 0.0219076 0.0221011 0.0222948
0.0224886 0.0226824 0.0228763 0.0230702 0.0232644 0.0234587 0.0236531 0.0238474 0.0240419 0.0242366
0.0244315 0.0246264 0.0248213 0.0250163 0.0252116 0.0254071 0.0256026 0.0257981 0.0259938 0.0261897
0.0263859 0.026582 0.0267782 0.0269746 0.0271712 0.0273681 0.027565 0.027762 0.0279591 0.0281565
0.0283542 0.0285519 0.0287497 0.0289476 0.0291459 0.0293446 0.0295432 0.0297418 0.0299407 0.03014
0.0303396 0.0305392 0.0307389 0.0309388 0.0311391 0.0313398 0.0315405 0.0317413 0.0319423 0.0321438
0.0323457 0.0325476 0.0327495 0.0329518 0.0331546 0.0333578 0.033561 0.0337643 0.0339679 0.034172
0.0343766 0.0345813 0.034786 0.034991 0.0351966 0.0354028 0.0356089 0.0358151 0.0360217 0.0362289
0.0364366 0.036645 0.0368539 0.0370633 0.0372726 0.0374819 0.0376919 0.0379024 0.0381133 0.0383242
0.0385351 0.0387465 0.0389585 0.0391708 0.039383 0.0395952 0.0398079 0.040021 0.0402343 0.0404476
0.0406607 0.0408742 0.0410879 0.0413018 0.0415154 0.0417289 0.0419425 0.0421561 0.0423695 0.0425827
0.0427957 0.0430083 0.0432204 0.0434322 0.0436437 0.0438548 0.0440651 0.0442745 0.0444833 0.0446917
0.0448998 0.0451064 0.0453115 0.0455161 0.0457203 0.0459241 0.0461258 0.0463256 0.046525 0.0467241
0.0469228 0.0471188 0.0473129 0.0475068 0.0477005 0.047894 0.0480841 0.0482728 0.0484615 0.0486502
0.0488388 0.0490238 0.0492082 0.0493928 0.0495775 0.0497623 0.0499437 0.0501253 0.0503072 0.0504892
0.0506714 0.0508516 0.0510319 0.0512124 0.051393 0.0515739 0.051754 0.0519342 0.0521144 0.0522948
0.0524752 0.0526557 0.0528363 0.053017 0.0531977 0.0533786 0.0535595 0.0537403 0.0539213 0.0541022
0.0542834 0.0544647 0.054646 0.0548272 0.0550085 0.0551901 0.0553717 0.0555534 0.055735 0.0559166
0.0560986 0.0562805 0.0564624 0.0566444 0.0568263 0.0569008 0.0569752 0.0570497 0.0571241 0.0571976
0.0573056 0.0574136 0.0575216 0.0576296 0.0577375 0.0579201 0.0581026 0.0582851 0.0584677 0.0586502
0.058833 0.0590158 0.0591987 0.0593815 0.0595643 0.0597474 0.0599305 0.0601137 0.0602968 0.0604799
0.0606633 0.0608468 0.0610302 0.0612136 0.061397 0.0615808 0.0617645 0.0619482 0.0621319 0.0623157
0.0624997 0.0626837 0.0628677 0.0630517 0.0632357 0.06342 0.0636043 0.0637886 0.0639728 0.0641571
0.0643417 0.0645262 0.0647107 0.0648952 0.0650798 0.0652645 0.0654493 0.0656341 0.0658188 0.0660036
0.0661886 0.0663735 0.0665585 0.0667434 0.0669284 0.0671136 0.0672989 0.0674842 0.0676695 0.0678548
0.0680401 0.0682256 0.068411 0.0685965 0.0687819 0.0689674 0.069153 0.0693386 0.0695241 0.0697097
0.0698953 0.070081 0.0702667 0.0704524 0.0706381 0.0708238 0.0710096 0.0711954 0.0713812 0.071567
0.0717528 0.0719386 0.0721245 0.0723104 0.0724962 0.0726821 0.072868 0.0730539 0.0732399 0.0734258
0.0736117 0.0737977 0.0739836 0.0741696 0.0743556 0.0745415 0.0747275 0.0749135 0.0750994 0.0752854
0.0754714 0.0756574 0.0758434 0.0760293 0.0762153 0.0764013 0.0765872 0.0767732 0.0769591 0.0771451
0.0773311 0.077517 0.0777029 0.0778888 0.0780747 0.0782607 0.0784465 0.0786324 0.0788183 0.0790042
0.0791901 0.0793759 0.0795617 0.0797476 0.0799334 0.0801193 0.0803051 0.080491 0.0806768 0.0808626
0.0810485 0.0812343 0.0814202 0.081606 0.0817919 0.0819778 0.0821636 0.0823495 0.0825353 0.0827212
0.0829071 0.083093 0.0832789 0.0834648 0.0836507 0.0838367 0.0840226 0.0842086 0.0843946 0.0845805
0.0847666 0.0849526 0.0851387 0.0853247 0.0855108 0.0856969 0.085883 0.0860692 0.0862553 0.0864414
0.0866276 0.0868138 0.087 0.0871862 0.0873724 0.0875587 0.087745 0.0879313 0.0881175 0.0883038
0.0884902 0.0886765 0.0888629 0.0890492 0.0892356 0.089422 0.0896084 0.0897948 0.0899812 0.0901676
0.0903541 0.0905405 0.090727 0.0909135 0.0910999 0.0912865 0.091473 0.0916595 0.091846 0.0920325
0.0922191 0.0924056 0.0925921 0.0927787 0.0929653 0.0931519 0.0933384 0.093525 0.0937116 0.0938982
0.0940848 0.0942714 0.0944581 0.0946447 0.0948313 0.0950179 0.0952046 0.0953912 0.0955779 0.0957645
0.0959512 0.0961379 0.0963245 0.0965112 0.0966979 0.0968846 0.0970713 0.0972581 0.0974448 0.0976316
0.0978184 0.0980052 0.098192 0.0983788 0.0985657 0.0987525 0.0989395 0.0991264 0.0993134 0.0995003
0.0996873 0.0998745 0.100062 0.100249 0.100436 0.100623 0.100811 0.100999 0.101187 0.101374
0.101562 0.101751 0.10194 0.102129 0.102318 0.102507 0.102697 0.102887 0.103078 0.103269
0.103459 0.103652 0.103844 0.104037 0.10423 0.104423 0.104617 0.104812 0.105007 0.105202
0.105397 0.105594 0.10579 0.105987 0.106184 0.10638 0.106578 0.106775 0.106973 0.10717
0.107368 0.107566 0.107764 0.107961 0.108159 0.108357 0.108554 0.108752 0.108949 0.109147
0.109344 0.109541 0.109738 0.109934 0.110131 0.110327 0.110524 0.11072 0.110915 0.111111
0.111307 0.111502 0.111697 0.111892 0.112087 0.112281 0.112476 0.11267 0.112864 0.113058
0.113252 0.113445 0.113639 0.113832 0.114025 0.114218 0.114411 0.114603 0.114796 0.114988
0.11518 0.115372 0.115563 0.115755 0.115947 0.116138 0.116329 0.11652 0.116711 0.116902
0.117092 0.117283 0.117474 0.117664 0.117854 0.118044 0.118235 0.118425 0.118615 0.118804
0.118994 0.119184 0.119374 0.119563 0.119753 0.119942 0.120132 0.120321 0.12051 0.1207
0.120889 0.121078 0.121267 0.121456 0.121645 0.121834 0.122023 0.122212 0.122401 0.12259
0.122779 0.122967 0.123156 0.123345 0.123534 0.123722 0.123911 0.1241 0.124288 0.124477
0.124666 0.124854 0.125043 0.125231 0.12542 0.125608 0.125797 0.125985 0.126174 0.126362
0.126551 0.126739 0.126927 0.127116 0.127304 0.127493 0.127681 0.127869 0.128058 0.128246
0.128434 0.128622 0.128811 0.128999 0.129187 0.129376 0.129564 0.129752 0.12994 0.130129
0.130317 0.130505 0.130693 0.130881 0.131069 0.131258 0.131446 0.131634 0.131822 0.13201
0.132198 0.132386 0.132574 0.132763 0.132951 0.133139 0.133327 0.133515 0.133703 0.133891
0.134079 0.134267 0.134455 0.134643 0.134831 0.135019 0.135207 0.135395 0.135583 0.135771
0.135959 0.136147 0.136335 0.136523 0.136711 0.136899 0.137087 0.137275 0.137463 0.137651
0.137839 0.138027 0.138215 0.138402 0.13859 0.138778 0.138966 0.139154 0.139342 0.13953
0.139718 0.139906 0.140094 0.140281 0.140469 0.140657 0.140845 0.141033 0.141221 0.141409
0.141596 0.141784 0.141972 0.14216 0.142348 0.142536 0.142723 0.142911 0.143099 0.143287
0.143475 0.143662 0.14385 0.144038 0.144226 0.144414 0.144601 0.144789 0.144977 0.145165
0.145352 0.14554 0.145728 0.145916 0.146104 0.146291 0.146479 0.146667 0.146854 0.147042
0.14723 0.147418 0.147605 0.147793 0.147981 0.148168 0.148356 0.148544 0.148732 0.148919
0.149107 0.149295 0.149482 0.14967 0.149858 0.150045 0.150233 0.150421 0.150608 0.150796
0.150984 0.151171 0.151359 0.151547 0.151735 0.15211 0.152485 0.15286 0.153235 0.153611
0.154361 0.155111 0.155861 0.156612 0.157362 0.158862 0.160362 0.161862 0.163363 0.164863
0.166363 0.167863 0.169363 0.170863 0.172363 0.175363 0.178363 0.181364 0.184364 0.187364
0.193364 0.199364 0.205364 0.211364 0.217364 0.223364 0.229364 0.235364 0.241364 0.247364
0.253364 0.259364 0.265364 0.271365 0.277365 0.283365 0.289365 0.295365 0.301365 0.307365
0.313365 0.319365 0.325365 0.331365 0.337365 0.343365 0.349365 0.355365 0.361365 0.367365
0.373365 0.379365 0.385365 0.391365 0.397365 0.403365 0.409385 0.415424 0.421483 0.427562
0 7.37481e-05 0.0001475 0.000221256 0.000295017 0.000368781 0.000559564 0.000750381 0.000941234 0.00113212
0.00132304 0.001514 0.00170499 0.00189602 0.00208709 0.0022782 0.00246934 0.00266052 0.00285173 0.00304299
0.00323429 0.00342562 0.003617 0.00380842 0.00399988 0.00419138 0.00438293 0.00457452 0.00476615 0.00495783
0.00514955 0.00534132 0.00553314 0.005725 0.00591692 0.00610888 0.00630089 0.00649295 0.00668506 0.00687723
0.00706944 0.00726171 0.00745403 0.00764641 0.00783884 0.00803133 0.00822388 0.00841648 0.00860914 0.00880187
0.00899465 0.00918749 0.0093804 0.00957337 0.0097664 0.0099595 0.0101527 0.0103459 0.0105392 0.0107326
0.010926 0.0111195 0.0113131 0.0115068 0.0117005 0.0118943 0.0120882 0.0122822 0.0124762 0.0126703
0.0128645 0.0130588 0.0132532 0.0134476 0.0136422 0.0138368 0.0140316 0.0142264 0.0144213 0.0146163
0.0148114 0.0150066 0.0152019 0.0153973 0.0155928 0.0157884 0.0159841 0.0161799 0.0163758 0.0165719
0.016768 0.0169643 0.0171607 0.0173572 0.0175538 0.0177506 0.0179474 0.0181444 0.0183416 0.0185388
0.0187362 0.0189338 0.0191314 0.0193292 0.0195272 0.0197253 0.0199236 0.020122 0.0203205 0.0205193
0.0207181 0.0209172 0.0211164 0.0213158 0.0215153 0.021715 0.0219149 0.022115 0.0223153 0.0225158
0.0227164 0.0229173 0.0231183 0.0233196 0.023521 0.0237227 0.0239246 0.0241267 0.024329 0.0245316
0.0247344 0.0249374 0.0251407 0.0253442 0.025548 0.0257521 0.0259564 0.0261609 0.0263658 0.0265709
0.0267763 0.026982 0.027188 0.0273943 0.0276009 0.0278079 0.0280151 0.0282227 0.0284306 0.0286389
0.0288476 0.0290565 0.0292659 0.0294756 0.0296858 0.0298963 0.0301072 0.0303185 0.0305303 0.0307425
0.0309552 0.0311682 0.0313818 0.0315958 0.0318103 0.0320254 0.0322409 0.0324569 0.0326736 0.0328907
0.0331084 0.0333267 0.0335456 0.0337651 0.0339852 0.0342059 0.0344273 0.0346494 0.0348722 0.0350957
0.0353199 0.0355448 0.0357705 0.035997 0.0362242 0.0364523 0.0366812 0.036911 0.0371418 0.0373734
0.0376059 0.0378394 0.0380738 0.0383092 0.0385456 0.0387831 0.0390216 0.0392613 0.0395021 0.0397441
0.0399872 0.0402314 0.0404768 0.0407234 0.0409713 0.0412205 0.041471 0.0417229 0.0419761 0.0422306
0.0424866 0.0427438 0.0430023 0.043262 0.0435231 0.0437859 0.04405 0.0443153 0.0445819 0.0448496
0.0451194 0.0453897 0.0456606 0.0459322 0.0462043 0.046479 0.0466196 0.0467601 0.0469006 0.047041
0.0471243 0.0472699 0.0474153 0.0475606 0.0477058 0.0478519 0.048126 0.0483983 0.0486688 0.0489375
0.0492094 0.0493652 0.0495196 0.0496728 0.0498248 0.0499398 0.0500549 0.0501694 0.0502831 0.0503961
0.0505093 0.05076 0.0510054 0.0512459 0.0514815 0.0517136 0.0517326 0.0517516 0.0517705 0.0517893
0.0518083 0.0520138 0.0522148 0.0524115 0.0526041 0.0527907 0.0529053 0.0530181 0.0531292 0.0532389
0.053377 0.0534502 0.0535228 0.0535948 0.0536661 0.0537364 0.0539128 0.0540856 0.0542549 0.0544209
0.0545804 0.0546173 0.0546541 0.0546908 0.0547275 0.0547629 0.0548793 0.0549946 0.0551088 0.055222
0.0553531 0.0553725 0.055392 0.0554114 0.0554307 0.0554537 0.0555817 0.0557092 0.0558362 0.0559627
0.056088 0.0562327 0.0563775 0.0565224 0.0566675 0.0568126 0.0569577 0.0571031 0.0572489 0.0573951
0.0575416 0.0576885 0.0578357 0.0579834 0.0581314 0.0582798 0.0584286 0.0585777 0.0587271 0.0588768
0.059027 0.0591774 0.0593282 0.0594794 0.0596308 0.0597826 0.0599348 0.0600872 0.06024 0.0603931
0.0605465 0.0607002 0.0608543 0.0610087 0.0611635 0.0613186 0.061474 0.0616298 0.061786 0.0619425
0.0620993 0.0622565 0.0624141 0.0625721 0.0627304 0.0628891 0.0630482 0.0632076 0.0633674 0.0635276
0.0636882 0.0638491 0.0640105 0.0641722 0.0643342 0.0644967 0.0646595 0.0648227 0.0649862 0.06515
0.0653143 0.0654789 0.0656439 0.0658092 0.0659748 0.0661408 0.0663072 0.0664738 0.0666408 0.0668081
0.0669757 0.0671436 0.0673119 0.0674805 0.0676494 0.0678185 0.067988 0.0681577 0.0683277 0.068498
0.0686686 0.0688395 0.0690106 0.069182 0.0693537 0.0695256 0.0696977 0.0698701 0.0700427 0.0702155
0.0703886 0.0705619 0.0707355 0.0709092 0.0710832 0.0712574 0.0714318 0.0716063 0.0717811 0.071956
0.0721311 0.0723064 0.0724819 0.0726576 0.0728334 0.0730094 0.0731856 0.0733619 0.0735383 0.0737149
0.0738916 0.0740684 0.0742454 0.0744225 0.0745998 0.0747771 0.0749546 0.0751321 0.0753097 0.0754874
0.0756652 0.0758431 0.076021 0.0761991 0.0763772 0.0765553 0.0767336 0.0769118 0.07709 0.0772683
0.0774466 0.0776249 0.0778033 0.0779816 0.07816 0.0783384 0.0785167 0.0786951 0.0788733 0.0790516
0.0792298 0.0794081 0.0795863 0.0797644 0.0799426 0.0801207 0.0802988 0.0804768 0.0806548 0.0808327
0.0810107 0.0811887 0.0813666 0.0815446 0.0817226 0.0819006 0.0820786 0.0822567 0.0824347 0.0826129
0.0827911 0.0829693 0.0831477 0.0833262 0.0835048 0.0836835 0.0838622 0.0840411 0.0842201 0.0843993
0.0845786 0.0847581 0.0849377 0.0851175 0.0852975 0.0854776 0.0856579 0.0858383 0.0860189 0.0861997
0.0863807 0.0865618 0.0867432 0.0869247 0.0871064 0.0872882 0.0874703 0.0876525 0.0878348 0.0880174
0.0882001 0.088383 0.0885661 0.0887493 0.0889328 0.0891163 0.0893001 0.089484 0.089668 0.0898522
0.0900365 0.0902211 0.0904057 0.0905906 0.0907755 0.0909607 0.0911459 0.0913313 0.0915168 0.0917024
0.0918882 0.0920741 0.0922601 0.0924462 0.0926324 0.0928188 0.0930053 0.0931918 0.0933785 0.0935652
0.0937521 0.093939 0.0941261 0.0943132 0.0945004 0.0946878 0.0948752 0.0950627 0.0952502 0.0954379
0.0956256 0.0958134 0.0960012 0.0961892 0.0963771 0.0965652 0.0967533 0.0969415 0.0971298 0.0973182
0.0975066 0.0976951 0.0978836 0.0980722 0.0982609 0.0984497 0.0986387 0.0988278 0.0990171 0.0992065
0.099396 0.0995861 0.0997764 0.0999668 0.100158 0.100349 0.100539 0.10073 0.100921 0.101113
0.101305 0.101498 0.101692 0.101887 0.102083 0.10228 0.102479 0.10268 0.102883 0.103088
0.103297 0.103507 0.103721 0.103939 0.104161 0.104387 0.104616 0.10485 0.105089 0.105332
0.105582 0.10575 0.105921 0.106094 0.106269 0.106466 0.106554 0.106643 0.106733 0.106823
0.106914 0.107196 0.107485 0.107779 0.10808 0.108386 0.108698 0.109017 0.109341 0.109671
0.110007 0.110351 0.110701 0.111057 0.111417 0.111783 0.112153 0.112527 0.112903 0.113283
0.113665 0.114048 0.114431 0.114812 0.115193 0.115576 0.115749 0.115922 0.116094 0.116265
0.116404 0.116615 0.116825 0.117034 0.117242 0.117449 0.117816 0.11818 0.118541 0.118897
0.119251 0.119601 0.119947 0.120289 0.120628 0.120964 0.121166 0.121368 0.121569 0.121768
0.12199 0.122112 0.122233 0.122353 0.122474 0.122593 0.12291 0.123225 0.123536 0.123845
0.12415 0.124453 0.124753 0.125051 0.125347 0.125639 0.12593 0.126219 0.126506 0.126791
0.127074 0.127355 0.127635 0.127914 0.12819 0.128466 0.128517 0.128568 0.128619 0.128669
0.128723 0.128944 0.129165 0.129384 0.129603 0.129821 0.130088 0.130354 0.130619 0.130883
0.131145 0.131407 0.131668 0.131928 0.132187 0.132445 0.132702 0.132958 0.133214 0.133469
0.133724 0.133978 0.134231 0.134484 0.134736 0.134987 0.135238 0.135489 0.135739 0.13599
0.136239 0.136488 0.136737 0.136985 0.137233 0.137481 0.137728 0.137975 0.138222 0.138469
0.138715 0.138961 0.139207 0.139452 0.139698 0.139943 0.140188 0.140433 0.140677 0.140922
0.141166 0.14141 0.141654 0.141897 0.142141 0.142384 0.142627 0.142869 0.143112 0.143355
0.143597 0.143839 0.144081 0.144322 0.144564 0.144805 0.145046 0.145287 0.145527 0.145767
0.146007 0.146056 0.146105 0.146153 0.146202 0.146253 0.146443 0.146633 0.146823 0.147012
0.147201 0.147435 0.14767 0.147904 0.148137 0.148369 0.148597 0.148826 0.149055 0.149283
0.149509 0.149733 0.149958 0.150182 0.150405 0.150627 0.150846 0.151067 0.151287 0.151507
0.151725 0.151941 0.152159 0.152375 0.152591 0.152807 0.15302 0.153234 0.153448 0.153661
0.153874 0.154084 0.154296 0.154507 0.154718 0.154929 0.155136 0.155346 0.155555 0.155764
0.155972 0.156178 0.156386 0.156593 0.156799 0.157006 0.15721 0.157416 0.157621 0.157827
0.158032 0.158234 0.158438 0.158642 0.158846 0.159049 0.15925 0.159453 0.159656 0.159859
0.160062 0.160261 0.160463 0.160665 0.160866 0.161068 0.161266 0.161467 0.161667 0.161868
0.162068 0.162266 0.162465 0.162665 0.162864 0.163064 0.163261 0.163459 0.163658 0.163857
0.164055 0.164251 0.164449 0.164647 0.164845 0.165042 0.165238 0.165435 0.165632 0.165829
0.166026 0.166221 0.166418 0.166614 0.166811 0.167007 0.167202 0.167397 0.167593 0.167789
0.167985 0.168179 0.168374 0.16857 0.168765 0.16896 0.169347 0.169734 0.170122 0.170509
0.170896 0.171657 0.172419 0.173181 0.173943 0.174704 0.176213 0.177719 0.179225 0.180731
0.182237 0.183741 0.185245 0.18675 0.188255 0.189759 0.192765 0.195771 0.198777 0.201783
0.204789 0.210793 0.216796 0.2228 0.228804 0.234808 0.240809 0.246811 0.252813 0.258815
0.264817 0.270818 0.27682 0.282822 0.288824 0.294825 0.300827 0.306828 0.31283 0.318832
0.324834 0.330835 0.336836 0.342838 0.34884 0.354842 0.360843 0.366844 0.372846 0.378848
0.384849 0.39085 0.396852 0.402854 0.408855 0.414857 0.420858 0.426879 0.43292 0.43898
0.44506 0 7.37247e-05 0.000147454 0.000221189 0.000294928 0.000368672 0.000559402 0.000750166 0.000940964
0.0011318 0.00132266 0.00151356 0.0017045 0.00189547 0.00208648 0.00227752 0.0024686 0.00265972 0.00285088
0.00304207 0.00323331 0.00342458 0.00361589 0.00380724 0.00399864 0.00419007 0.00438155 0.00457307 0.00476464
0.00495625 0.0051479 0.0053396 0.00553134 0.00572313 0.00591497 0.00610686 0.00629879 0.00649077 0.00668281
0.00687489 0.00706703 0.00725921 0.00745145 0.00764375 0.0078361 0.0080285 0.00822096 0.00841347 0.00860605
0.00879868 0.00899137 0.00918412 0.00937693 0.00956981 0.00976274 0.00995575 0.0101488 0.0103419 0.0105351
0.0107284 0.0109217 0.0111151 0.0113086 0.0115022 0.0116958 0.0118895 0.0120832 0.0122771 0.012471
0.012665 0.0128591 0.0130533 0.0132475 0.0134419 0.0136363 0.0138308 0.0140254 0.01422 0.0144148
0.0146097 0.0148046 0.0149997 0.0151949 0.0153901 0.0155855 0.0157809 0.0159765 0.0161721 0.0163679
0.0165638 0.0167598 0.0169559 0.0171521 0.0173484 0.0175449 0.0177414 0.0179381 0.018135 0.0183319
0.018529 0.0187262 0.0189235 0.019121 0.0193186 0.0195164 0.0197143 0.0199123 0.0201105 0.0203089
0.0205074 0.0207061 0.0209049 0.0211039 0.021303 0.0215023 0.0217018 0.0219015 0.0221014 0.0223014
0.0225016 0.022702 0.0229026 0.0231034 0.0233044 0.0235056 0.0237071 0.0239087 0.0241105 0.0243126
0.0245149 0.0247175 0.0249202 0.0251233 0.0253265 0.0255301 0.0257339 0.0259379 0.0261422 0.0263468
0.0265517 0.0267569 0.0269624 0.0271682 0.0273743 0.0275807 0.0277875 0.0279945 0.028202 0.0284098
0.0286179 0.0288265 0.0290354 0.0292447 0.0294545 0.0296646 0.0298752 0.0298962 0.0299172 0.0299382
0.0299593 0.02998 0.0301703 0.0303609 0.030552 0.0307434 0.0309352 0.0311486 0.0313626 0.0315771
0.0317921 0.0320077 0.0322238 0.0324405 0.0326579 0.0328759 0.0330945 0.0333137 0.0335336 0.0337543
0.0339756 0.0341977 0.0344205 0.0346441 0.0348686 0.0350938 0.0353199 0.0355469 0.0357747 0.0360036
0.0362333 0.0364641 0.0366958 0.0369287 0.0371627 0.0373979 0.0376342 0.0378717 0.0381105 0.0383506
0.0385921 0.038835 0.0390794 0.0393254 0.0395731 0.0398225 0.0400735 0.0403263 0.040581 0.0408377
0.0410966 0.0413576 0.0416207 0.0418863 0.0421546 0.0424256 0.0426992 0.0429762 0.0432564 0.0435398
0.0438267 0.0441173 0.0444108 0.0447085 0.0450106 0.0453171 0.0456292 0.0459437 0.046263 0.0465871
0.046916 0.0472554 0.0474749 0.047697 0.0479213 0.0481473 0.0482199 0.0483836 0.0485482 0.0487136
0.0488796 0.0490511 0.0493982 0.0497481 0.0501001 0.0504507 0.0505297 0.0506222 0.0507146 0.0508067
0.0508986 0.0509933 0.0512206 0.0514451 0.0516668 0.0518854 0.0520191 0.0522071 0.052392 0.0525739
0.0527528 0.0529413 0.0529835 0.0530255 0.0530674 0.053109 0.0531486 0.0533493 0.0535443 0.0537343